
 Primary working directories    : /scratch/kmoore
 Secondary working directories  : /scratch/kmoore
 Wavefunction directory         : /scratch/kmoore/
 Main file repository           : /scratch/kmoore/

 SHA1      : b6b3a4772808bb2d43777f23454e145ddfe12dc3
 NAME      : 2015.1.1
 ARCHNAME  : linux/x86_64
 FC        : /soft/mvapich2/2.2b_psm/intel-15.0/bin/mpif90
 BLASLIB   : -L/soft/intel/15.0.1/composer_xe_2015.0.090/mkl/lib/intel64 -lmkl_intel_ilp64 -lmkl_sequential -lmkl_core
 id        : anlgov

 Nodes     nprocs
 b441         3
 Number of processes for MPI-2 version of Molpro:   nprocs(total)=    4   nprocs(compute)=    3   nprocs(helper)=    1

 Using customized tuning parameters: mindgm=1; mindgv=20; mindgc=4; mindgr=1; noblas=0; minvec=7
 default implementation of scratch files=sf  

 ***,CASPT2 calculation for the singlet state
 memory,1000,m
 
 nosym
 geometry
 N     -1.054968198610399    -0.190497136933746    -0.000000000000000
 C     -0.000000000000041     0.444590917545206     0.000000000000000
 N      1.054968198610434    -0.190497136933725    -0.000000000000000
 end
 
 nn(1)=1
 nn(2)=2
 nn(3)=3
 
 basis=cc-pVDZ
 {uhf,maxit=1000
   wf,20,1,2,0}
 {ump2}
 {freq,noproject
  print,hessian}
 

 Variables initialized (889), CPU time= 0.23 sec
 Commands  initialized (702), CPU time= 0.03 sec, 572 directives.
 Default parameters read. Elapsed time= 1.09 sec

 Checking input...
 Passed
1


                                         ***  PROGRAM SYSTEM MOLPRO  ***
                                       Copyright, TTI GmbH Stuttgart, 2015
                                    Version 2015.1 linked Jan  8 2016 07:59:11


 **********************************************************************************************************************************
 LABEL *   CASPT2 calculation for the singlet state                                      
  64 bit mpp version                                                                     DATE: 07-Mar-19          TIME: 11:02:05  
 **********************************************************************************************************************************

 SHA1:             b6b3a4772808bb2d43777f23454e145ddfe12dc3
 **********************************************************************************************************************************

 Variable memory set to 1000000000 words,  buffer space   230000 words

 ZSYMEL=NOSYM
 

Geometry recognized as XYZ

 SETTING NN(1)          =         1.00000000                                  
 SETTING NN(2)          =         2.00000000                                  
 SETTING NN(3)          =         3.00000000                                  
 SETTING BASIS          =    CC-PVDZ


 Recomputing integrals since basis changed


 Using spherical harmonics

 Library entry N      S cc-pVDZ              selected for orbital group  1
 Library entry N      P cc-pVDZ              selected for orbital group  1
 Library entry N      D cc-pVDZ              selected for orbital group  1
 Library entry C      S cc-pVDZ              selected for orbital group  2
 Library entry C      P cc-pVDZ              selected for orbital group  2
 Library entry C      D cc-pVDZ              selected for orbital group  2

1PROGRAM * SEWARD (Integral evaluation for generally contracted gaussian basis sets)     Author: Roland Lindh, 1990

 Geometry written to block  1 of record 700


 Point group  C1  



 ATOMIC COORDINATES

 NR  ATOM    CHARGE       X              Y              Z

   1  N       7.00   -1.993600965   -0.359987416    0.000000000
   2  C       6.00   -0.000000000    0.840155072    0.000000000
   3  N       7.00    1.993600965   -0.359987416    0.000000000

 Bond lengths in Bohr (Angstrom)

 1-2  2.326969446  2-3  2.326969446
     ( 1.231379201)     ( 1.231379201)

 Bond angles

  1-2-3  117.90434194

 NUCLEAR CHARGE:                   20
 NUMBER OF PRIMITIVE AOS:          81
 NUMBER OF SYMMETRY AOS:           78
 NUMBER OF CONTRACTIONS:           42   (  42A   )
 NUMBER OF CORE ORBITALS:           3   (   3A   )
 NUMBER OF VALENCE ORBITALS:       12   (  12A   )


 NUCLEAR REPULSION ENERGY   48.38777411

 EXTRA SYMMETRY OF AOS IN SYMMETRY 1:   1 1 1 1 1 2 1 1 2 1   1 2 1 2 1 1 1 1 1 2   1 1 2 1 1 2 1 2 1 1   1 1 1 2 1 1 2 1 1 2
                                        1 2

 Eigenvalues of metric

         1 0.518E-02 0.932E-02 0.281E-01 0.725E-01 0.727E-01 0.808E-01 0.100E+00 0.113E+00


 Contracted 2-electron integrals neglected if value below      1.0D-11
 AO integral compression algorithm  1   Integral accuracy      1.0D-11

     1.573 MB (compressed) written to integral file ( 42.2%)

     Node minimum: 0.524 MB, node maximum: 0.524 MB


 NUMBER OF SORTED TWO-ELECTRON INTEGRALS:     136353.     BUFFER LENGTH:  32768
 NUMBER OF SEGMENTS:   1  SEGMENT LENGTH:     136353      RECORD LENGTH: 524288

 Memory used in sort:       0.69 MW

 SORT1 READ      544483. AND WROTE       61193. INTEGRALS IN      1 RECORDS. CPU TIME:     0.03 SEC, REAL TIME:     0.03 SEC
 SORT2 READ      187869. AND WROTE      408156. INTEGRALS IN      6 RECORDS. CPU TIME:     0.01 SEC, REAL TIME:     0.02 SEC

 Node minimum:      135751.  Node maximum:      136353. integrals

 OPERATOR DM      FOR CENTER  0  COORDINATES:    0.000000    0.000000    0.000000


 **********************************************************************************************************************************
 DATASETS  * FILE   NREC   LENGTH (MB)   RECORD NAMES
              1      18       19.17       500      610      700      900      950      970     1000      129      960     1100   
                                          VAR    BASINP    GEOM    SYMINP    ZMAT    AOBASIS   BASIS     P2S    ABASIS      S 
                                         1400     1410     1200     1210     1080     1600     1650     1700   
                                           T        V       H0       H01     AOSYM     SMH    MOLCAS    OPER   

 PROGRAMS   *        TOTAL       INT
 CPU TIMES  *         1.56      0.93
 REAL TIME  *         4.31 SEC
 DISK USED  *        13.63 MB      
 GA USED    *         0.00 MB       (max)       0.00 MB       (current)
 **********************************************************************************************************************************

1PROGRAM * UHF-SCF       Authors: W. Meyer, H.-J. Werner


 NUMBER OF ELECTRONS:      11+    9-    SPACE SYMMETRY=1    SPIN SYMMETRY: Triplet 
 CONVERGENCE THRESHOLDS:    1.00E-06 (Density)    1.00E-07 (Energy)
 MAX. NUMBER OF ITERATIONS:     1000
 INTERPOLATION TYPE:            DIIS
 INTERPOLATION STEPS:              2 (START)      1 (STEP)
 LEVEL SHIFTS:                  0.20 (ALPHA)   0.20 (BETA) 



 Orbital guess generated from atomic densities. Full valence occupancy:   15

 Molecular orbital dump at record        2200.2

 Initial alpha occupation  11
 Initial beta  occupation   9

 ITERATION    DDIFF          GRAD             ENERGY        2-EL.EN.            DIPOLE MOMENTS         DIIS
    1      0.000D+00      0.000D+00      -146.55352864    196.439350    0.00000    1.04175    0.00000    0
    2      0.167D-01      0.729D-02      -146.60588767    197.588401    0.00000    0.56507    0.00000    1
    3      0.484D-02      0.339D-02      -146.62472111    197.784070    0.00000    0.56710   -0.00000    2
    4      0.400D-02      0.260D-02      -146.64608428    197.862778    0.00000    0.49584   -0.00000    3
    5      0.452D-02      0.181D-02      -146.66353225    197.889346    0.00000    0.46242   -0.00000    4
    6      0.475D-02      0.107D-02      -146.67223832    197.929911    0.00000    0.47791   -0.00000    5
    7      0.225D-02      0.492D-03      -146.67350942    197.976318    0.00000    0.49212   -0.00000    6
    8      0.470D-03      0.175D-03      -146.67359786    197.960970    0.00000    0.49183   -0.00000    7
    9      0.390D-03      0.740D-04      -146.67362090    197.971085    0.00000    0.49173   -0.00000    8
   10      0.215D-03      0.443D-04      -146.67362653    197.966991    0.00000    0.49005   -0.00000    9
   11      0.120D-03      0.294D-04      -146.67363042    197.968346    0.00000    0.48860   -0.00000    9
   12      0.687D-04      0.110D-04      -146.67363099    197.967576    0.00000    0.48757   -0.00000    9
   13      0.173D-04      0.390D-05      -146.67363106    197.967804    0.00000    0.48734   -0.00000    9
   14      0.270D-05      0.885D-06      -146.67363106    197.967785    0.00000    0.48731   -0.00000    8
   15      0.114D-05      0.386D-06      -146.67363106    197.967772    0.00000    0.48731   -0.00000    8
   16      0.344D-06      0.132D-06      -146.67363106    197.967771    0.00000    0.48731   -0.00000    8
   17      0.172D-06      0.558D-07      -146.67363106    197.967771    0.00000    0.48731   -0.00000    7
 
 Final alpha occupancy:  11
 Final beta  occupancy:   9

 !UHF STATE 1.1 Energy               -146.673631058905
 Nuclear energy                        48.38777411
 One-electron energy                 -294.04529062
 Two-electron energy                   98.98388545
 Virial quotient                       -0.99770569
 !UHF STATE 1.1 Dipole moment           0.00000000     0.48730729    -0.00000000
 Dipole moment /Debye                   0.00000000     1.23853046    -0.00000000

 Orbital energies for positive spin:

         1.1          2.1          3.1          4.1          5.1          6.1          7.1          8.1          9.1         10.1
    -15.663569   -15.663490   -11.310074    -1.382327    -1.225380    -0.703046    -0.657824    -0.650762    -0.625444    -0.516573

        11.1         12.1         13.1
     -0.495561     0.085830     0.223178

 Orbital energies for negative spin:

         1.1          2.1          3.1          4.1          5.1          6.1          7.1          8.1          9.1         10.1
    -15.610514   -15.610487   -11.346483    -1.287093    -1.034290    -0.645582    -0.556171    -0.552200    -0.540651     0.082550

        11.1         12.1         13.1
      0.121391     0.132967     0.279267

 HOMO     11.1    -0.495561 =     -13.4849eV
 LUMO    -10.1     0.082550 =       2.2463eV
 LUMO-HOMO         0.578110 =      15.7312eV

 EXPECTATION VALUE OF S**2:             2.65770295

 Occupation number threshold for canonical orbitals:  1.999000 (occupied),  0.001000 (virtual)

 Number of pseudo-canonical orbitals per symmetry:    4
 Number of active natural orbitals per symmetry:     12

 Natural orbitals saved to record    2200.2 (Orbital set 3)

 Orbital spaces for UNO-CAS (Min. occupation: 0.020  Max. occupation: 1.980):

 Closed:        7
 Active:        6


 **********************************************************************************************************************************
 DATASETS  * FILE   NREC   LENGTH (MB)   RECORD NAMES
              1      18       19.17       500      610      700      900      950      970     1000      129      960     1100   
                                          VAR    BASINP    GEOM    SYMINP    ZMAT    AOBASIS   BASIS     P2S    ABASIS      S 
                                         1400     1410     1200     1210     1080     1600     1650     1700   
                                           T        V       H0       H01     AOSYM     SMH    MOLCAS    OPER   

              2       4        0.48       700     1000      520     2200   
                                         GEOM     BASIS   MCVARS     UHF  

 PROGRAMS   *        TOTAL       UHF       INT
 CPU TIMES  *         1.79      0.22      0.93
 REAL TIME  *         4.68 SEC
 DISK USED  *        13.63 MB      
 SF USED    *         0.50 MB      
 GA USED    *         0.00 MB       (max)       0.00 MB       (current)
 **********************************************************************************************************************************


1PROGRAM * UMP2 (Unrestricted open-shell)     Authors: H.-J. Werner, 2001


 Convergence thresholds:  THRVAR = 1.00D-12  THRDEN = 1.00D-08

 Number of core orbitals:           3 (   3 )
 Number of closed-shell orbitals:   6 (   6 )
 Number of active  orbitals:        2 (   2 )
 Number of external orbitals:      31 (  31 )

 Reading UHF information from record   2200.2

                               TOTAL       A-A         B-B         A-B
 Pair energies:            -0.31258762 -0.05455517 -0.03521362 -0.22281882
 Singles energies:          0.00000000  0.00000000  0.00000000

 Reference energy                    -146.673631058905
 Correlation energy                    -0.312587616940
 !UMP2 STATE 1.1 Energy              -146.986218675846


 **********************************************************************************************************************************
 DATASETS  * FILE   NREC   LENGTH (MB)   RECORD NAMES
              1      18       19.17       500      610      700      900      950      970     1000      129      960     1100   
                                          VAR    BASINP    GEOM    SYMINP    ZMAT    AOBASIS   BASIS     P2S    ABASIS      S 
                                         1400     1410     1200     1210     1080     1600     1650     1700   
                                           T        V       H0       H01     AOSYM     SMH    MOLCAS    OPER   

              2       4        0.48       700     1000      520     2200   
                                         GEOM     BASIS   MCVARS     UHF  

 PROGRAMS   *        TOTAL      UMP2       UHF       INT
 CPU TIMES  *         2.02      0.23      0.22      0.93
 REAL TIME  *         5.14 SEC
 DISK USED  *        13.63 MB      
 SF USED    *         1.39 MB      
 GA USED    *         0.00 MB       (max)       0.00 MB       (current)
 **********************************************************************************************************************************


 PROGRAM * HESSIAN

 Computing numerical hessian using default procedure for command UMP2

 Symmetry elements for unique displacements: X  Z  

 Using no symmetry in wavefunction calculations

 Running default procedure: UHF-SCF000  UMP2
 

 Numerically approximating hessian using central energy differences
 Task   1   Incrementing variables GX1,GX1        by  0.010 0.010
 Task   2   Incrementing variables GX1,GX1        by -0.010-0.010
 Task   3   Incrementing variables GY1,GX1        by  0.010 0.010
 Task   4   Incrementing variables GY1,GX1        by -0.010-0.010
 Task   5   Incrementing variables GY1,GY1        by  0.010 0.010
 Task   6   Incrementing variables GY1,GY1        by -0.010-0.010
 Task   7   Incrementing variables GZ1,GZ1        by  0.010 0.010

 Skipping negative increment of variables    3   3 due to symmetry.
 Task   8   Incrementing variables GX2,GX1        by  0.010 0.010
 Task   9   Incrementing variables GX2,GX1        by -0.010-0.010
 Task  10   Incrementing variables GX2,GY1        by  0.010 0.010
 Task  11   Incrementing variables GX2,GY1        by -0.010-0.010
 Task  12   Incrementing variables GX2,GX2        by  0.010 0.010

 Skipping negative increment of variables    4   4 due to symmetry.
 Task  13   Incrementing variables GY2,GX1        by  0.010 0.010
 Task  14   Incrementing variables GY2,GX1        by -0.010-0.010
 Task  15   Incrementing variables GY2,GY1        by  0.010 0.010
 Task  16   Incrementing variables GY2,GY1        by -0.010-0.010
 Task  17   Incrementing variables GY2,GY2        by  0.010 0.010
 Task  18   Incrementing variables GY2,GY2        by -0.010-0.010
 Task  19   Incrementing variables GZ2,GZ1        by  0.010 0.010

 Skipping negative increment of variables    6   3 due to symmetry.
 Task  20   Incrementing variables GZ2,GZ2        by  0.010 0.010

 Skipping negative increment of variables    6   6 due to symmetry.
 Task  21   Incrementing variables GX3,GX1        by  0.010 0.010
 Task  22   Incrementing variables GX3,GX1        by -0.010-0.010
 Task  23   Incrementing variables GX3,GY1        by  0.010 0.010
 Task  24   Incrementing variables GX3,GY1        by -0.010-0.010
 Task  25   Incrementing variables GY3,GY1        by  0.010 0.010
 Task  26   Incrementing variables GY3,GY1        by -0.010-0.010
 Task  27   Incrementing variables GZ3,GZ1        by  0.010 0.010

 Skipping negative increment of variables    9   3 due to symmetry.

 Task list generated. Total number of displacements:     27

 Starting task   1.  CPU=     0.00 sec, Elapsed=     0.00 sec
 Incrementing variable GX1              by  0.005292 ANG   to   -1.049676 ANG


 Recomputing integrals since geometry changed

1PROGRAM * SEWARD (Integral evaluation for generally contracted gaussian basis sets)     Author: Roland Lindh, 1990

 Geometry written to block  1 of record 700


 Point group  C1  



 ATOMIC COORDINATES

 NR  ATOM    CHARGE       X              Y              Z

   1  N       7.00   -1.983600965   -0.359987416    0.000000000
   2  C       6.00   -0.000000000    0.840155072    0.000000000
   3  N       7.00    1.993600965   -0.359987416    0.000000000

 Bond lengths in Bohr (Angstrom)

 1-2  2.318407812  2-3  2.326969446
     ( 1.226848580)     ( 1.231379201)

 Bond angles

  1-2-3  117.77688154

 NUCLEAR CHARGE:                   20
 NUMBER OF PRIMITIVE AOS:          81
 NUMBER OF SYMMETRY AOS:           78
 NUMBER OF CONTRACTIONS:           42   (  42A   )
 NUMBER OF CORE ORBITALS:           3   (   3A   )
 NUMBER OF VALENCE ORBITALS:       12   (  12A   )


 NUCLEAR REPULSION ENERGY   48.48532740

 EXTRA SYMMETRY OF AOS IN SYMMETRY 1:   1 1 1 1 1 2 1 1 2 1   1 2 1 2 1 1 1 1 1 2   1 1 2 1 1 2 1 2 1 1   1 1 1 2 1 1 2 1 1 2
                                        1 2

 Eigenvalues of metric

         1 0.516E-02 0.929E-02 0.279E-01 0.721E-01 0.724E-01 0.803E-01 0.100E+00 0.113E+00


 Contracted 2-electron integrals neglected if value below      1.0D-11
 AO integral compression algorithm  1   Integral accuracy      1.0D-11

     1.573 MB (compressed) written to integral file ( 42.3%)

     Node minimum: 0.524 MB, node maximum: 0.524 MB


 NUMBER OF SORTED TWO-ELECTRON INTEGRALS:     136353.     BUFFER LENGTH:  32768
 NUMBER OF SEGMENTS:   1  SEGMENT LENGTH:     136353      RECORD LENGTH: 524288

 Memory used in sort:       0.69 MW

 SORT1 READ      544483. AND WROTE       61337. INTEGRALS IN      1 RECORDS. CPU TIME:     0.01 SEC, REAL TIME:     0.02 SEC
 SORT2 READ      188301. AND WROTE      408156. INTEGRALS IN      6 RECORDS. CPU TIME:     0.01 SEC, REAL TIME:     0.02 SEC

 Node minimum:      135751.  Node maximum:      136353. integrals

 OPERATOR DM      FOR CENTER  0  COORDINATES:    0.000000    0.000000    0.000000
1PROGRAM * UHF-SCF       Authors: W. Meyer, H.-J. Werner


 NUMBER OF ELECTRONS:      11+    9-    SPACE SYMMETRY=1    SPIN SYMMETRY: Triplet 
 CONVERGENCE THRESHOLDS:    1.00E-07 (Density)    1.00E-08 (Energy)
 MAX. NUMBER OF ITERATIONS:     1000
 INTERPOLATION TYPE:            DIIS
 INTERPOLATION STEPS:              2 (START)      1 (STEP)
 LEVEL SHIFTS:                  0.20 (ALPHA)   0.20 (BETA) 

 Number of closed-shell orbitals:    9 (   9 )
 Number of open-shell orbitals:      2 (   2 )


 Molecular orbitals read from record     2200.2  Type=UHF/ALPHA (state 1.1)
 Molecular orbitals read from record     2200.2  Type=UHF/BETA (state 1.1)

 Molecular orbital dump at record        2200.1

 Initial alpha occupation  11
 Initial beta  occupation   9

 ITERATION    DDIFF          GRAD             ENERGY        2-EL.EN.            DIPOLE MOMENTS         DIIS
    1      0.000D+00      0.000D+00      -146.67259869    198.134316   -0.00049    0.48770   -0.00000    0
    2      0.302D-03      0.110D-03      -146.67261310    198.153900    0.00096    0.48826   -0.00000    1
    3      0.161D-03      0.519D-04      -146.67261800    198.155696    0.00098    0.48903   -0.00000    2
    4      0.104D-03      0.262D-04      -146.67262050    198.154567    0.00192    0.48957   -0.00000    3
    5      0.647D-04      0.150D-04      -146.67262150    198.154269    0.00235    0.48975   -0.00000    4
    6      0.321D-04      0.621D-05      -146.67262173    198.154111    0.00258    0.48976    0.00000    5
    7      0.141D-04      0.267D-05      -146.67262177    198.154159    0.00254    0.48976   -0.00000    6
    8      0.408D-05      0.111D-05      -146.67262177    198.154166    0.00253    0.48980    0.00000    7
    9      0.212D-05      0.567D-06      -146.67262177    198.154159    0.00253    0.48981   -0.00000    8
   10      0.979D-06      0.317D-06      -146.67262177    198.154166    0.00253    0.48983   -0.00000    9
   11      0.678D-06      0.181D-06      -146.67262177    198.154164    0.00253    0.48983   -0.00000    9
   12      0.413D-06      0.947D-07      -146.67262177    198.154165    0.00252    0.48984   -0.00000    8
   13      0.193D-06      0.389D-07      -146.67262177    198.154165    0.00252    0.48984    0.00000    8
   14      0.447D-07      0.130D-07      -146.67262177    198.154165    0.00252    0.48984   -0.00000    8
   15      0.279D-07      0.748D-08      -146.67262177    198.154165    0.00252    0.48984   -0.00000    9
 
 Final alpha occupancy:  11
 Final beta  occupancy:   9

 !UHF STATE 1.1 Energy               -146.672621773548
 Nuclear energy                        48.48532740
 One-electron energy                 -294.23503182
 Two-electron energy                   99.07708265
 Virial quotient                       -0.99758062
 !UHF STATE 1.1 Dipole moment           0.00251783     0.48983843    -0.00000000
 Dipole moment /Debye                   0.00639926     1.24496357    -0.00000000

 Orbital energies for positive spin:

         1.1          2.1          3.1          4.1          5.1          6.1          7.1          8.1          9.1         10.1
    -15.663461   -15.662603   -11.309766    -1.384017    -1.225738    -0.703055    -0.658698    -0.651365    -0.625656    -0.516155

        11.1         12.1         13.1
     -0.494783     0.085815     0.223890

 Orbital energies for negative spin:

         1.1          2.1          3.1          4.1          5.1          6.1          7.1          8.1          9.1         10.1
    -15.610257   -15.609846   -11.346035    -1.288770    -1.034995    -0.645408    -0.556555    -0.552316    -0.541388     0.082631

        11.1         12.1         13.1
      0.121377     0.133502     0.279999

 HOMO     11.1    -0.494783 =     -13.4637eV
 LUMO    -10.1     0.082631 =       2.2485eV
 LUMO-HOMO         0.577414 =      15.7122eV

 EXPECTATION VALUE OF S**2:             2.65250342

 Occupation number threshold for canonical orbitals:  1.999000 (occupied),  0.001000 (virtual)

 Number of pseudo-canonical orbitals per symmetry:    4
 Number of active natural orbitals per symmetry:     12

 Natural orbitals saved to record    2200.1 (Orbital set 3)

 Orbital spaces for UNO-CAS (Min. occupation: 0.020  Max. occupation: 1.980):



 **********************************************************************************************************************************
 DATASETS  * FILE   NREC   LENGTH (MB)   RECORD NAMES
              1      19       19.35       500      610      700      900      950      970     1000      129      960     1100   
                                          VAR    BASINP    GEOM    SYMINP    ZMAT    AOBASIS   BASIS     P2S    ABASIS      S 
                                         1400     1410     1200     1210     1080     1600     1650     1700     2200   
                                           T        V       H0       H01     AOSYM     SMH    MOLCAS    OPER      UHF  

              2       5        0.49       700     1000      520     2200     5500   
                                         GEOM     BASIS   MCVARS     UHF     HINFO   

 PROGRAMS   *        TOTAL       UHF      UMP2       UHF       INT
 CPU TIMES  *         2.37      0.34      0.23      0.22      0.93
 REAL TIME  *         5.75 SEC
 DISK USED  *        72.73 MB      
 SF USED    *         1.39 MB      
 GA USED    *         0.00 MB       (max)       0.00 MB       (current)
 **********************************************************************************************************************************


1PROGRAM * UMP2 (Unrestricted open-shell)     Authors: H.-J. Werner, 2001


 Convergence thresholds:  THRVAR = 1.00D-12  THRDEN = 1.00D-08

 Number of core orbitals:           3 (   3 )
 Number of closed-shell orbitals:   6 (   6 )
 Number of active  orbitals:        2 (   2 )
 Number of external orbitals:      31 (  31 )

 Reading UHF information from record   2200.1

                               TOTAL       A-A         B-B         A-B
 Pair energies:            -0.31273586 -0.05456078 -0.03523741 -0.22293767
 Singles energies:          0.00000000  0.00000000  0.00000000

 Reference energy                    -146.672621773548
 Correlation energy                    -0.312735858584
 !UMP2 STATE 1.1 Energy              -146.985357632132


 **********************************************************************************************************************************
 DATASETS  * FILE   NREC   LENGTH (MB)   RECORD NAMES
              1      19       19.35       500      610      700      900      950      970     1000      129      960     1100   
                                          VAR    BASINP    GEOM    SYMINP    ZMAT    AOBASIS   BASIS     P2S    ABASIS      S 
                                         1400     1410     1200     1210     1080     1600     1650     1700     2200   
                                           T        V       H0       H01     AOSYM     SMH    MOLCAS    OPER      UHF  

              2       5        0.49       700     1000      520     2200     5500   
                                         GEOM     BASIS   MCVARS     UHF     HINFO   

 PROGRAMS   *        TOTAL      UMP2      UMP2       UHF       INT
 CPU TIMES  *         2.53      0.16      0.23      0.22      0.93
 REAL TIME  *         6.00 SEC
 DISK USED  *        72.73 MB      
 SF USED    *         1.39 MB      
 GA USED    *         0.00 MB       (max)       0.00 MB       (current)
 **********************************************************************************************************************************
 Starting task   2.  CPU=     0.55 sec, Elapsed=     0.84 sec
 Incrementing variable GX1              by -0.005292 ANG   to   -1.060260 ANG


 Recomputing integrals since geometry changed

1PROGRAM * SEWARD (Integral evaluation for generally contracted gaussian basis sets)     Author: Roland Lindh, 1990

 Geometry written to block  1 of record 700


 Point group  C1  



 ATOMIC COORDINATES

 NR  ATOM    CHARGE       X              Y              Z

   1  N       7.00   -2.003600965   -0.359987416    0.000000000
   2  C       6.00   -0.000000000    0.840155072    0.000000000
   3  N       7.00    1.993600965   -0.359987416    0.000000000

 Bond lengths in Bohr (Angstrom)

 1-2  2.335542511  2-3  2.326969446
     ( 1.235915872)     ( 1.231379201)

 Bond angles

  1-2-3  118.03086723

 NUCLEAR CHARGE:                   20
 NUMBER OF PRIMITIVE AOS:          81
 NUMBER OF SYMMETRY AOS:           78
 NUMBER OF CONTRACTIONS:           42   (  42A   )
 NUMBER OF CORE ORBITALS:           3   (   3A   )
 NUMBER OF VALENCE ORBITALS:       12   (  12A   )


 NUCLEAR REPULSION ENERGY   48.29077609

 EXTRA SYMMETRY OF AOS IN SYMMETRY 1:   1 1 1 1 1 2 1 1 2 1   1 2 1 2 1 1 1 1 1 2   1 1 2 1 1 2 1 2 1 1   1 1 1 2 1 1 2 1 1 2
                                        1 2

 Eigenvalues of metric

         1 0.519E-02 0.934E-02 0.282E-01 0.727E-01 0.732E-01 0.814E-01 0.101E+00 0.113E+00


 Contracted 2-electron integrals neglected if value below      1.0D-11
 AO integral compression algorithm  1   Integral accuracy      1.0D-11

     1.573 MB (compressed) written to integral file ( 42.3%)

     Node minimum: 0.262 MB, node maximum: 0.786 MB


 NUMBER OF SORTED TWO-ELECTRON INTEGRALS:     136353.     BUFFER LENGTH:  32768
 NUMBER OF SEGMENTS:   1  SEGMENT LENGTH:     136353      RECORD LENGTH: 524288

 Memory used in sort:       0.69 MW

 SORT1 READ      544483. AND WROTE       61337. INTEGRALS IN      1 RECORDS. CPU TIME:     0.01 SEC, REAL TIME:     0.02 SEC
 SORT2 READ      188301. AND WROTE      408156. INTEGRALS IN      6 RECORDS. CPU TIME:     0.00 SEC, REAL TIME:     0.02 SEC

 Node minimum:      135751.  Node maximum:      136353. integrals

 OPERATOR DM      FOR CENTER  0  COORDINATES:    0.000000    0.000000    0.000000
1PROGRAM * UHF-SCF       Authors: W. Meyer, H.-J. Werner


 NUMBER OF ELECTRONS:      11+    9-    SPACE SYMMETRY=1    SPIN SYMMETRY: Triplet 
 CONVERGENCE THRESHOLDS:    1.00E-07 (Density)    1.00E-08 (Energy)
 MAX. NUMBER OF ITERATIONS:     1000
 INTERPOLATION TYPE:            DIIS
 INTERPOLATION STEPS:              2 (START)      1 (STEP)
 LEVEL SHIFTS:                  0.20 (ALPHA)   0.20 (BETA) 

 Number of closed-shell orbitals:    9 (   9 )
 Number of open-shell orbitals:      2 (   2 )


 Molecular orbitals read from record     2200.2  Type=UHF/ALPHA (state 1.1)
 Molecular orbitals read from record     2200.2  Type=UHF/BETA (state 1.1)

 Molecular orbital dump at record        2200.1

 Initial alpha occupation  11
 Initial beta  occupation   9

 ITERATION    DDIFF          GRAD             ENERGY        2-EL.EN.            DIPOLE MOMENTS         DIIS
    1      0.000D+00      0.000D+00      -146.67455886    197.801903    0.00049    0.48692   -0.00000    0
    2      0.301D-03      0.109D-03      -146.67457311    197.782599   -0.00096    0.48636   -0.00000    1
    3      0.161D-03      0.516D-04      -146.67457799    197.780822   -0.00101    0.48559   -0.00000    2
    4      0.104D-03      0.260D-04      -146.67458045    197.781999   -0.00198    0.48505    0.00000    3
    5      0.637D-04      0.149D-04      -146.67458142    197.782310   -0.00242    0.48487   -0.00000    4
    6      0.313D-04      0.609D-05      -146.67458164    197.782472   -0.00264    0.48486   -0.00000    5
    7      0.136D-04      0.260D-05      -146.67458168    197.782424   -0.00260    0.48486   -0.00000    6
    8      0.400D-05      0.112D-05      -146.67458169    197.782416   -0.00259    0.48482    0.00000    7
    9      0.215D-05      0.578D-06      -146.67458169    197.782420   -0.00260    0.48480   -0.00000    8
   10      0.985D-06      0.317D-06      -146.67458169    197.782413   -0.00260    0.48479   -0.00000    9
   11      0.699D-06      0.181D-06      -146.67458169    197.782414   -0.00259    0.48478   -0.00000    9
   12      0.424D-06      0.918D-07      -146.67458169    197.782413   -0.00258    0.48478   -0.00000    9
   13      0.174D-06      0.346D-07      -146.67458169    197.782413   -0.00258    0.48477   -0.00000    8
   14      0.418D-07      0.120D-07      -146.67458169    197.782413   -0.00258    0.48477   -0.00000    8
   15      0.210D-07      0.680D-08      -146.67458169    197.782413   -0.00258    0.48477   -0.00000    8
 
 Final alpha occupancy:  11
 Final beta  occupancy:   9

 !UHF STATE 1.1 Energy               -146.674581687566
 Nuclear energy                        48.29077609
 One-electron energy                 -293.85656434
 Two-electron energy                   98.89120657
 Virial quotient                       -0.99782846
 !UHF STATE 1.1 Dipole moment          -0.00257984     0.48477486    -0.00000000
 Dipole moment /Debye                  -0.00655688     1.23209410    -0.00000000

 Orbital energies for positive spin:

         1.1          2.1          3.1          4.1          5.1          6.1          7.1          8.1          9.1         10.1
    -15.664454   -15.663595   -11.310376    -1.380651    -1.225014    -0.703032    -0.656957    -0.650160    -0.625223    -0.516991

        11.1         12.1         13.1
     -0.496329     0.085841     0.222475

 Orbital energies for negative spin:

         1.1          2.1          3.1          4.1          5.1          6.1          7.1          8.1          9.1         10.1
    -15.611156   -15.610739   -11.346921    -1.285438    -1.033565    -0.645756    -0.555802    -0.552066    -0.539927     0.082474

        11.1         12.1         13.1
      0.121402     0.132437     0.278537

 HOMO     11.1    -0.496329 =     -13.5058eV
 LUMO    -10.1     0.082474 =       2.2442eV
 LUMO-HOMO         0.578803 =      15.7500eV

 EXPECTATION VALUE OF S**2:             2.66278275

 Occupation number threshold for canonical orbitals:  1.999000 (occupied),  0.001000 (virtual)

 Number of pseudo-canonical orbitals per symmetry:    4
 Number of active natural orbitals per symmetry:     12

 Natural orbitals saved to record    2200.1 (Orbital set 3)

 Orbital spaces for UNO-CAS (Min. occupation: 0.020  Max. occupation: 1.980):



 **********************************************************************************************************************************
 DATASETS  * FILE   NREC   LENGTH (MB)   RECORD NAMES
              1      19       19.35       500      610      700      900      950      970     1000      129      960     1100   
                                          VAR    BASINP    GEOM    SYMINP    ZMAT    AOBASIS   BASIS     P2S    ABASIS      S 
                                         1400     1410     1200     1210     1080     1600     1650     1700     2200   
                                           T        V       H0       H01     AOSYM     SMH    MOLCAS    OPER      UHF  

              2       5        0.49       700     1000      520     2200     5500   
                                         GEOM     BASIS   MCVARS     UHF     HINFO   

 PROGRAMS   *        TOTAL       UHF      UMP2       UHF       INT
 CPU TIMES  *         2.79      0.25      0.23      0.22      0.93
 REAL TIME  *         6.61 SEC
 DISK USED  *        73.28 MB      
 SF USED    *         1.39 MB      
 GA USED    *         0.00 MB       (max)       0.00 MB       (current)
 **********************************************************************************************************************************


1PROGRAM * UMP2 (Unrestricted open-shell)     Authors: H.-J. Werner, 2001


 Convergence thresholds:  THRVAR = 1.00D-12  THRDEN = 1.00D-08

 Number of core orbitals:           3 (   3 )
 Number of closed-shell orbitals:   6 (   6 )
 Number of active  orbitals:        2 (   2 )
 Number of external orbitals:      31 (  31 )

 Reading UHF information from record   2200.1

                               TOTAL       A-A         B-B         A-B
 Pair energies:            -0.31244718 -0.05454975 -0.03519043 -0.22270699
 Singles energies:          0.00000000  0.00000000  0.00000000

 Reference energy                    -146.674581687566
 Correlation energy                    -0.312447175186
 !UMP2 STATE 1.1 Energy              -146.987028862751


 **********************************************************************************************************************************
 DATASETS  * FILE   NREC   LENGTH (MB)   RECORD NAMES
              1      19       19.35       500      610      700      900      950      970     1000      129      960     1100   
                                          VAR    BASINP    GEOM    SYMINP    ZMAT    AOBASIS   BASIS     P2S    ABASIS      S 
                                         1400     1410     1200     1210     1080     1600     1650     1700     2200   
                                           T        V       H0       H01     AOSYM     SMH    MOLCAS    OPER      UHF  

              2       5        0.49       700     1000      520     2200     5500   
                                         GEOM     BASIS   MCVARS     UHF     HINFO   

 PROGRAMS   *        TOTAL      UMP2      UMP2       UHF       INT
 CPU TIMES  *         2.85      0.06      0.23      0.22      0.93
 REAL TIME  *         6.71 SEC
 DISK USED  *        73.28 MB      
 SF USED    *         1.39 MB      
 GA USED    *         0.00 MB       (max)       0.00 MB       (current)
 **********************************************************************************************************************************
 Starting task   3.  CPU=     0.93 sec, Elapsed=     1.54 sec
 Incrementing variable GY1              by  0.005292 ANG   to   -0.185205 ANG
 Incrementing variable GX1              by  0.005292 ANG   to   -1.049676 ANG


 Recomputing integrals since geometry changed

1PROGRAM * SEWARD (Integral evaluation for generally contracted gaussian basis sets)     Author: Roland Lindh, 1990

 Geometry written to block  1 of record 700


 Point group  C1  



 ATOMIC COORDINATES

 NR  ATOM    CHARGE       X              Y              Z

   1  N       7.00   -1.983600965   -0.349987416    0.000000000
   2  C       6.00   -0.000000000    0.840155072    0.000000000
   3  N       7.00    1.993600965   -0.359987416    0.000000000

 Bond lengths in Bohr (Angstrom)

 1-2  2.313247054  2-3  2.326969446
     ( 1.224117624)     ( 1.231379201)

 Bond angles

  1-2-3  117.98879868

 NUCLEAR CHARGE:                   20
 NUMBER OF PRIMITIVE AOS:          81
 NUMBER OF SYMMETRY AOS:           78
 NUMBER OF CONTRACTIONS:           42   (  42A   )
 NUMBER OF CORE ORBITALS:           3   (   3A   )
 NUMBER OF VALENCE ORBITALS:       12   (  12A   )


 NUCLEAR REPULSION ENERGY   48.52570423

 EXTRA SYMMETRY OF AOS IN SYMMETRY 1:   1 1 1 1 1 2 1 1 2 1   1 2 1 2 1 1 1 1 1 2   1 1 2 1 1 2 1 2 1 1   1 1 1 2 1 1 2 1 1 2
                                        1 2

 Eigenvalues of metric

         1 0.515E-02 0.925E-02 0.279E-01 0.717E-01 0.722E-01 0.800E-01 0.100E+00 0.112E+00


 Contracted 2-electron integrals neglected if value below      1.0D-11
 AO integral compression algorithm  1   Integral accuracy      1.0D-11

     1.835 MB (compressed) written to integral file ( 40.8%)

     Node minimum: 0.262 MB, node maximum: 0.786 MB


 NUMBER OF SORTED TWO-ELECTRON INTEGRALS:     136353.     BUFFER LENGTH:  32768
 NUMBER OF SEGMENTS:   1  SEGMENT LENGTH:     136353      RECORD LENGTH: 524288

 Memory used in sort:       0.69 MW

 SORT1 READ      544483. AND WROTE       67621. INTEGRALS IN      1 RECORDS. CPU TIME:     0.00 SEC, REAL TIME:     0.02 SEC
 SORT2 READ      206103. AND WROTE      408156. INTEGRALS IN      9 RECORDS. CPU TIME:     0.01 SEC, REAL TIME:     0.02 SEC

 Node minimum:      135751.  Node maximum:      136353. integrals

 OPERATOR DM      FOR CENTER  0  COORDINATES:    0.000000    0.000000    0.000000
1PROGRAM * UHF-SCF       Authors: W. Meyer, H.-J. Werner


 NUMBER OF ELECTRONS:      11+    9-    SPACE SYMMETRY=1    SPIN SYMMETRY: Triplet 
 CONVERGENCE THRESHOLDS:    1.00E-07 (Density)    1.00E-08 (Energy)
 MAX. NUMBER OF ITERATIONS:     1000
 INTERPOLATION TYPE:            DIIS
 INTERPOLATION STEPS:              2 (START)      1 (STEP)
 LEVEL SHIFTS:                  0.20 (ALPHA)   0.20 (BETA) 

 Number of closed-shell orbitals:    9 (   9 )
 Number of open-shell orbitals:      2 (   2 )


 Molecular orbitals read from record     2200.2  Type=UHF/ALPHA (state 1.1)
 Molecular orbitals read from record     2200.2  Type=UHF/BETA (state 1.1)

 Molecular orbital dump at record        2200.1

 Initial alpha occupation  11
 Initial beta  occupation   9

 ITERATION    DDIFF          GRAD             ENERGY        2-EL.EN.            DIPOLE MOMENTS         DIIS
    1      0.000D+00      0.000D+00      -146.67266118    198.195959   -0.00035    0.48690   -0.00000    0
    2      0.469D-03      0.164D-03      -146.67269342    198.227022    0.00202    0.48711   -0.00000    1
    3      0.239D-03      0.762D-04      -146.67270414    198.229968    0.00210    0.48797   -0.00000    2
    4      0.153D-03      0.394D-04      -146.67271003    198.228289    0.00368    0.48861   -0.00000    3
    5      0.982D-04      0.235D-04      -146.67271249    198.227835    0.00451    0.48858   -0.00000    4
    6      0.534D-04      0.933D-05      -146.67271301    198.227508    0.00514    0.48841   -0.00000    5
    7      0.200D-04      0.352D-05      -146.67271307    198.227503    0.00521    0.48826   -0.00000    6
    8      0.607D-05      0.150D-05      -146.67271308    198.227522    0.00524    0.48826   -0.00000    7
    9      0.272D-05      0.679D-06      -146.67271308    198.227497    0.00526    0.48825   -0.00000    8
   10      0.120D-05      0.304D-06      -146.67271308    198.227502    0.00528    0.48826   -0.00000    8
   11      0.383D-06      0.128D-06      -146.67271308    198.227502    0.00529    0.48826   -0.00000    8
   12      0.217D-06      0.713D-07      -146.67271308    198.227503    0.00529    0.48826   -0.00000    7
   13      0.180D-06      0.425D-07      -146.67271308    198.227503    0.00529    0.48826   -0.00000    7
   14      0.791D-07      0.162D-07      -146.67271308    198.227503    0.00529    0.48826   -0.00000    8
   15      0.219D-07      0.602D-08      -146.67271308    198.227503    0.00529    0.48826   -0.00000    8
 
 Final alpha occupancy:  11
 Final beta  occupancy:   9

 !UHF STATE 1.1 Energy               -146.672713080825
 Nuclear energy                        48.52570423
 One-electron energy                 -294.31216893
 Two-electron energy                   99.11375162
 Virial quotient                       -0.99753080
 !UHF STATE 1.1 Dipole moment           0.00529339     0.48826197    -0.00000000
 Dipole moment /Debye                   0.01345356     1.24095685    -0.00000000

 Orbital energies for positive spin:

         1.1          2.1          3.1          4.1          5.1          6.1          7.1          8.1          9.1         10.1
    -15.663638   -15.662258   -11.309566    -1.384566    -1.226494    -0.703046    -0.659140    -0.651624    -0.626010    -0.516149

        11.1         12.1         13.1
     -0.494875     0.086438     0.224454

 Orbital energies for negative spin:

         1.1          2.1          3.1          4.1          5.1          6.1          7.1          8.1          9.1         10.1
    -15.610367   -15.609704   -11.345697    -1.289450    -1.036101    -0.644948    -0.556741    -0.552561    -0.541731     0.082297

        11.1         12.1         13.1
      0.121973     0.132920     0.280862

 HOMO     11.1    -0.494875 =     -13.4662eV
 LUMO    -10.1     0.082297 =       2.2394eV
 LUMO-HOMO         0.577172 =      15.7057eV

 EXPECTATION VALUE OF S**2:             2.64736192

 Occupation number threshold for canonical orbitals:  1.999000 (occupied),  0.001000 (virtual)

 Number of pseudo-canonical orbitals per symmetry:    4
 Number of active natural orbitals per symmetry:     12

 Natural orbitals saved to record    2200.1 (Orbital set 3)

 Orbital spaces for UNO-CAS (Min. occupation: 0.020  Max. occupation: 1.980):



 **********************************************************************************************************************************
 DATASETS  * FILE   NREC   LENGTH (MB)   RECORD NAMES
              1      19       19.35       500      610      700      900      950      970     1000      129      960     1100   
                                          VAR    BASINP    GEOM    SYMINP    ZMAT    AOBASIS   BASIS     P2S    ABASIS      S 
                                         1400     1410     1200     1210     1080     1600     1650     1700     2200   
                                           T        V       H0       H01     AOSYM     SMH    MOLCAS    OPER      UHF  

              2       5        0.49       700     1000      520     2200     5500   
                                         GEOM     BASIS   MCVARS     UHF     HINFO   

 PROGRAMS   *        TOTAL       UHF      UMP2       UHF       INT
 CPU TIMES  *         3.26      0.41      0.23      0.22      0.93
 REAL TIME  *         7.47 SEC
 DISK USED  *        73.35 MB      
 SF USED    *         1.39 MB      
 GA USED    *         0.00 MB       (max)       0.00 MB       (current)
 **********************************************************************************************************************************


1PROGRAM * UMP2 (Unrestricted open-shell)     Authors: H.-J. Werner, 2001


 Convergence thresholds:  THRVAR = 1.00D-12  THRDEN = 1.00D-08

 Number of core orbitals:           3 (   3 )
 Number of closed-shell orbitals:   6 (   6 )
 Number of active  orbitals:        2 (   2 )
 Number of external orbitals:      31 (  31 )

 Reading UHF information from record   2200.1

                               TOTAL       A-A         B-B         A-B
 Pair energies:            -0.31293923 -0.05457012 -0.03527195 -0.22309716
 Singles energies:          0.00000000  0.00000000  0.00000000

 Reference energy                    -146.672713080825
 Correlation energy                    -0.312939229161
 !UMP2 STATE 1.1 Energy              -146.985652309985


 **********************************************************************************************************************************
 DATASETS  * FILE   NREC   LENGTH (MB)   RECORD NAMES
              1      19       19.35       500      610      700      900      950      970     1000      129      960     1100   
                                          VAR    BASINP    GEOM    SYMINP    ZMAT    AOBASIS   BASIS     P2S    ABASIS      S 
                                         1400     1410     1200     1210     1080     1600     1650     1700     2200   
                                           T        V       H0       H01     AOSYM     SMH    MOLCAS    OPER      UHF  

              2       5        0.49       700     1000      520     2200     5500   
                                         GEOM     BASIS   MCVARS     UHF     HINFO   

 PROGRAMS   *        TOTAL      UMP2      UMP2       UHF       INT
 CPU TIMES  *         3.34      0.08      0.23      0.22      0.93
 REAL TIME  *         7.56 SEC
 DISK USED  *        73.35 MB      
 SF USED    *         1.39 MB      
 GA USED    *         0.00 MB       (max)       0.00 MB       (current)
 **********************************************************************************************************************************
 Starting task   4.  CPU=     1.47 sec, Elapsed=     2.39 sec
 Incrementing variable GY1              by -0.005292 ANG   to   -0.195789 ANG
 Incrementing variable GX1              by -0.005292 ANG   to   -1.060260 ANG


 Recomputing integrals since geometry changed

1PROGRAM * SEWARD (Integral evaluation for generally contracted gaussian basis sets)     Author: Roland Lindh, 1990

 Geometry written to block  1 of record 700


 Point group  C1  



 ATOMIC COORDINATES

 NR  ATOM    CHARGE       X              Y              Z

   1  N       7.00   -2.003600965   -0.369987416    0.000000000
   2  C       6.00   -0.000000000    0.840155072    0.000000000
   3  N       7.00    1.993600965   -0.359987416    0.000000000

 Bond lengths in Bohr (Angstrom)

 1-2  2.340696834  2-3  2.326969446
     ( 1.238643422)     ( 1.231379201)

 Bond angles

  1-2-3  117.82087565

 NUCLEAR CHARGE:                   20
 NUMBER OF PRIMITIVE AOS:          81
 NUMBER OF SYMMETRY AOS:           78
 NUMBER OF CONTRACTIONS:           42   (  42A   )
 NUMBER OF CORE ORBITALS:           3   (   3A   )
 NUMBER OF VALENCE ORBITALS:       12   (  12A   )


 NUCLEAR REPULSION ENERGY   48.25113838

 EXTRA SYMMETRY OF AOS IN SYMMETRY 1:   1 1 1 1 1 2 1 1 2 1   1 2 1 2 1 1 1 1 1 2   1 1 2 1 1 2 1 2 1 1   1 1 1 2 1 1 2 1 1 2
                                        1 2

 Eigenvalues of metric

         1 0.520E-02 0.938E-02 0.283E-01 0.728E-01 0.736E-01 0.818E-01 0.101E+00 0.113E+00


 Contracted 2-electron integrals neglected if value below      1.0D-11
 AO integral compression algorithm  1   Integral accuracy      1.0D-11

     1.835 MB (compressed) written to integral file ( 40.7%)

     Node minimum: 0.524 MB, node maximum: 0.786 MB


 NUMBER OF SORTED TWO-ELECTRON INTEGRALS:     136353.     BUFFER LENGTH:  32768
 NUMBER OF SEGMENTS:   1  SEGMENT LENGTH:     136353      RECORD LENGTH: 524288

 Memory used in sort:       0.69 MW

 SORT1 READ      544483. AND WROTE       67622. INTEGRALS IN      1 RECORDS. CPU TIME:     0.01 SEC, REAL TIME:     0.02 SEC
 SORT2 READ      206106. AND WROTE      408156. INTEGRALS IN      6 RECORDS. CPU TIME:     0.00 SEC, REAL TIME:     0.03 SEC

 Node minimum:      135751.  Node maximum:      136353. integrals

 OPERATOR DM      FOR CENTER  0  COORDINATES:    0.000000    0.000000    0.000000
1PROGRAM * UHF-SCF       Authors: W. Meyer, H.-J. Werner


 NUMBER OF ELECTRONS:      11+    9-    SPACE SYMMETRY=1    SPIN SYMMETRY: Triplet 
 CONVERGENCE THRESHOLDS:    1.00E-07 (Density)    1.00E-08 (Energy)
 MAX. NUMBER OF ITERATIONS:     1000
 INTERPOLATION TYPE:            DIIS
 INTERPOLATION STEPS:              2 (START)      1 (STEP)
 LEVEL SHIFTS:                  0.20 (ALPHA)   0.20 (BETA) 

 Number of closed-shell orbitals:    9 (   9 )
 Number of open-shell orbitals:      2 (   2 )


 Molecular orbitals read from record     2200.2  Type=UHF/ALPHA (state 1.1)
 Molecular orbitals read from record     2200.2  Type=UHF/BETA (state 1.1)

 Molecular orbital dump at record        2200.1

 Initial alpha occupation  11
 Initial beta  occupation   9

 ITERATION    DDIFF          GRAD             ENERGY        2-EL.EN.            DIPOLE MOMENTS         DIIS
    1      0.000D+00      0.000D+00      -146.67437836    197.740970    0.00037    0.48773   -0.00000    0
    2      0.468D-03      0.162D-03      -146.67441007    197.710688   -0.00200    0.48748   -0.00000    1
    3      0.240D-03      0.756D-04      -146.67442071    197.707808   -0.00212    0.48661   -0.00000    2
    4      0.154D-03      0.389D-04      -146.67442654    197.709710   -0.00359    0.48603   -0.00000    3
    5      0.965D-04      0.219D-04      -146.67442883    197.710090   -0.00451    0.48599   -0.00000    4
    6      0.484D-04      0.866D-05      -146.67442925    197.710452   -0.00513    0.48618   -0.00000    5
    7      0.187D-04      0.327D-05      -146.67442931    197.710404   -0.00523    0.48630    0.00000    6
    8      0.513D-05      0.132D-05      -146.67442931    197.710418   -0.00527    0.48630   -0.00000    7
    9      0.231D-05      0.555D-06      -146.67442931    197.710424   -0.00529    0.48630   -0.00000    8
   10      0.612D-06      0.213D-06      -146.67442931    197.710418   -0.00530    0.48630   -0.00000    8
   11      0.306D-06      0.112D-06      -146.67442931    197.710418   -0.00531    0.48630    0.00000    8
   12      0.195D-06      0.643D-07      -146.67442931    197.710417   -0.00531    0.48629    0.00000    7
   13      0.158D-06      0.393D-07      -146.67442931    197.710417   -0.00532    0.48629   -0.00000    7
   14      0.786D-07      0.169D-07      -146.67442931    197.710416   -0.00532    0.48629    0.00000    8
   15      0.237D-07      0.687D-08      -146.67442931    197.710416   -0.00532    0.48629    0.00000    8
 
 Final alpha occupancy:  11
 Final beta  occupancy:   9

 !UHF STATE 1.1 Energy               -146.674429313748
 Nuclear energy                        48.25113838
 One-electron energy                 -293.78077588
 Two-electron energy                   98.85520818
 Virial quotient                       -0.99787521
 !UHF STATE 1.1 Dipole moment          -0.00531713     0.48629314     0.00000000
 Dipole moment /Debye                  -0.01351391     1.23595293     0.00000000

 Orbital energies for positive spin:

         1.1          2.1          3.1          4.1          5.1          6.1          7.1          8.1          9.1         10.1
    -15.664788   -15.663422   -11.310564    -1.380108    -1.224263    -0.703035    -0.656525    -0.649905    -0.624858    -0.517003

        11.1         12.1         13.1
     -0.496240     0.085229     0.221935

 Orbital energies for negative spin:

         1.1          2.1          3.1          4.1          5.1          6.1          7.1          8.1          9.1         10.1
    -15.611297   -15.610633   -11.347239    -1.284782    -1.032449    -0.646206    -0.555643    -0.551798    -0.539602     0.082808

        11.1         12.1         13.1
      0.120820     0.133004     0.277695

 HOMO     11.1    -0.496240 =     -13.5034eV
 LUMO    -10.1     0.082808 =       2.2533eV
 LUMO-HOMO         0.579048 =      15.7567eV

 EXPECTATION VALUE OF S**2:             2.66768240

 Occupation number threshold for canonical orbitals:  1.999000 (occupied),  0.001000 (virtual)

 Number of pseudo-canonical orbitals per symmetry:    4
 Number of active natural orbitals per symmetry:     12

 Natural orbitals saved to record    2200.1 (Orbital set 3)

 Orbital spaces for UNO-CAS (Min. occupation: 0.020  Max. occupation: 1.980):



 **********************************************************************************************************************************
 DATASETS  * FILE   NREC   LENGTH (MB)   RECORD NAMES
              1      19       19.35       500      610      700      900      950      970     1000      129      960     1100   
                                          VAR    BASINP    GEOM    SYMINP    ZMAT    AOBASIS   BASIS     P2S    ABASIS      S 
                                         1400     1410     1200     1210     1080     1600     1650     1700     2200   
                                           T        V       H0       H01     AOSYM     SMH    MOLCAS    OPER      UHF  

              2       5        0.49       700     1000      520     2200     5500   
                                         GEOM     BASIS   MCVARS     UHF     HINFO   

 PROGRAMS   *        TOTAL       UHF      UMP2       UHF       INT
 CPU TIMES  *         3.68      0.34      0.23      0.22      0.93
 REAL TIME  *         8.01 SEC
 DISK USED  *        73.35 MB      
 SF USED    *         1.39 MB      
 GA USED    *         0.00 MB       (max)       0.00 MB       (current)
 **********************************************************************************************************************************


1PROGRAM * UMP2 (Unrestricted open-shell)     Authors: H.-J. Werner, 2001


 Convergence thresholds:  THRVAR = 1.00D-12  THRDEN = 1.00D-08

 Number of core orbitals:           3 (   3 )
 Number of closed-shell orbitals:   6 (   6 )
 Number of active  orbitals:        2 (   2 )
 Number of external orbitals:      31 (  31 )

 Reading UHF information from record   2200.1

                               TOTAL       A-A         B-B         A-B
 Pair energies:            -0.31225885 -0.05454076 -0.03515721 -0.22256088
 Singles energies:          0.00000000  0.00000000  0.00000000

 Reference energy                    -146.674429313748
 Correlation energy                    -0.312258852350
 !UMP2 STATE 1.1 Energy              -146.986688166098


 **********************************************************************************************************************************
 DATASETS  * FILE   NREC   LENGTH (MB)   RECORD NAMES
              1      19       19.35       500      610      700      900      950      970     1000      129      960     1100   
                                          VAR    BASINP    GEOM    SYMINP    ZMAT    AOBASIS   BASIS     P2S    ABASIS      S 
                                         1400     1410     1200     1210     1080     1600     1650     1700     2200   
                                           T        V       H0       H01     AOSYM     SMH    MOLCAS    OPER      UHF  

              2       5        0.49       700     1000      520     2200     5500   
                                         GEOM     BASIS   MCVARS     UHF     HINFO   

 PROGRAMS   *        TOTAL      UMP2      UMP2       UHF       INT
 CPU TIMES  *         3.76      0.08      0.23      0.22      0.93
 REAL TIME  *         8.15 SEC
 DISK USED  *        73.35 MB      
 SF USED    *         1.39 MB      
 GA USED    *         0.00 MB       (max)       0.00 MB       (current)
 **********************************************************************************************************************************
 Starting task   5.  CPU=     1.94 sec, Elapsed=     2.98 sec
 Incrementing variable GY1              by  0.005292 ANG   to   -0.185205 ANG


 Recomputing integrals since geometry changed

1PROGRAM * SEWARD (Integral evaluation for generally contracted gaussian basis sets)     Author: Roland Lindh, 1990

 Geometry written to block  1 of record 700


 Point group  C1  



 ATOMIC COORDINATES

 NR  ATOM    CHARGE       X              Y              Z

   1  N       7.00   -1.993600965   -0.349987416    0.000000000
   2  C       6.00   -0.000000000    0.840155072    0.000000000
   3  N       7.00    1.993600965   -0.359987416    0.000000000

 Bond lengths in Bohr (Angstrom)

 1-2  2.321827718  2-3  2.326969446
     ( 1.228658316)     ( 1.231379201)

 Bond angles

  1-2-3  118.11575956

 NUCLEAR CHARGE:                   20
 NUMBER OF PRIMITIVE AOS:          81
 NUMBER OF SYMMETRY AOS:           78
 NUMBER OF CONTRACTIONS:           42   (  42A   )
 NUMBER OF CORE ORBITALS:           3   (   3A   )
 NUMBER OF VALENCE ORBITALS:       12   (  12A   )


 NUCLEAR REPULSION ENERGY   48.42770578

 EXTRA SYMMETRY OF AOS IN SYMMETRY 1:   1 1 1 1 1 2 1 1 2 1   1 2 1 2 1 1 1 1 1 2   1 1 2 1 1 2 1 2 1 1   1 1 1 2 1 1 2 1 1 2
                                        1 2

 Eigenvalues of metric

         1 0.517E-02 0.928E-02 0.280E-01 0.722E-01 0.724E-01 0.805E-01 0.100E+00 0.112E+00


 Contracted 2-electron integrals neglected if value below      1.0D-11
 AO integral compression algorithm  1   Integral accuracy      1.0D-11

     1.835 MB (compressed) written to integral file ( 40.7%)

     Node minimum: 0.524 MB, node maximum: 0.786 MB


 NUMBER OF SORTED TWO-ELECTRON INTEGRALS:     136353.     BUFFER LENGTH:  32768
 NUMBER OF SEGMENTS:   1  SEGMENT LENGTH:     136353      RECORD LENGTH: 524288

 Memory used in sort:       0.69 MW

 SORT1 READ      544483. AND WROTE       67518. INTEGRALS IN      1 RECORDS. CPU TIME:     0.00 SEC, REAL TIME:     0.01 SEC
 SORT2 READ      205875. AND WROTE      408156. INTEGRALS IN      6 RECORDS. CPU TIME:     0.01 SEC, REAL TIME:     0.01 SEC

 Node minimum:      135751.  Node maximum:      136353. integrals

 OPERATOR DM      FOR CENTER  0  COORDINATES:    0.000000    0.000000    0.000000
1PROGRAM * UHF-SCF       Authors: W. Meyer, H.-J. Werner


 NUMBER OF ELECTRONS:      11+    9-    SPACE SYMMETRY=1    SPIN SYMMETRY: Triplet 
 CONVERGENCE THRESHOLDS:    1.00E-07 (Density)    1.00E-08 (Energy)
 MAX. NUMBER OF ITERATIONS:     1000
 INTERPOLATION TYPE:            DIIS
 INTERPOLATION STEPS:              2 (START)      1 (STEP)
 LEVEL SHIFTS:                  0.20 (ALPHA)   0.20 (BETA) 

 Number of closed-shell orbitals:    9 (   9 )
 Number of open-shell orbitals:      2 (   2 )


 Molecular orbitals read from record     2200.2  Type=UHF/ALPHA (state 1.1)
 Molecular orbitals read from record     2200.2  Type=UHF/BETA (state 1.1)

 Molecular orbital dump at record        2200.1

 Initial alpha occupation  11
 Initial beta  occupation   9

 ITERATION    DDIFF          GRAD             ENERGY        2-EL.EN.            DIPOLE MOMENTS         DIIS
    1      0.000D+00      0.000D+00      -146.67373369    198.028878    0.00013    0.48650   -0.00000    0
    2      0.224D-03      0.908D-04      -146.67374267    198.040126    0.00106    0.48616   -0.00000    1
    3      0.128D-03      0.386D-04      -146.67374572    198.041411    0.00112    0.48629   -0.00000    2
    4      0.609D-04      0.198D-04      -146.67374690    198.040667    0.00173    0.48632   -0.00000    3
    5      0.427D-04      0.107D-04      -146.67374743    198.040506    0.00212    0.48618   -0.00000    4
    6      0.293D-04      0.575D-05      -146.67374758    198.040323    0.00255    0.48595   -0.00000    5
    7      0.104D-04      0.234D-05      -146.67374761    198.040315    0.00267    0.48582   -0.00000    6
    8      0.348D-05      0.113D-05      -146.67374761    198.040289    0.00272    0.48578    0.00000    7
    9      0.172D-05      0.603D-06      -146.67374761    198.040280    0.00274    0.48575    0.00000    8
   10      0.106D-05      0.331D-06      -146.67374761    198.040290    0.00275    0.48575    0.00000    9
   11      0.650D-06      0.174D-06      -146.67374761    198.040290    0.00276    0.48575    0.00000    9
   12      0.275D-06      0.713D-07      -146.67374761    198.040292    0.00276    0.48575    0.00000    9
   13      0.100D-06      0.300D-07      -146.67374761    198.040291    0.00276    0.48575    0.00000    9
   14      0.368D-07      0.125D-07      -146.67374761    198.040292    0.00276    0.48575    0.00000    8
   15      0.215D-07      0.644D-08      -146.67374761    198.040291    0.00276    0.48575    0.00000    8
 
 Final alpha occupancy:  11
 Final beta  occupancy:   9

 !UHF STATE 1.1 Energy               -146.673747612316
 Nuclear energy                        48.42770578
 One-electron energy                 -294.12159910
 Two-electron energy                   99.02014570
 Virial quotient                       -0.99765727
 !UHF STATE 1.1 Dipole moment           0.00275917     0.48574981     0.00000000
 Dipole moment /Debye                   0.00701266     1.23457199     0.00000000

 Orbital energies for positive spin:

         1.1          2.1          3.1          4.1          5.1          6.1          7.1          8.1          9.1         10.1
    -15.663709   -15.663187   -11.309879    -1.382871    -1.226133    -0.703039    -0.658260    -0.651019    -0.625802    -0.516565

        11.1         12.1         13.1
     -0.495652     0.086449     0.223732

 Orbital energies for negative spin:

         1.1          2.1          3.1          4.1          5.1          6.1          7.1          8.1          9.1         10.1
    -15.610610   -15.610359   -11.346153    -1.287760    -1.035398    -0.645127    -0.556347    -0.552453    -0.540986     0.082216

        11.1         12.1         13.1
      0.121983     0.132390     0.280120

 HOMO     11.1    -0.495652 =     -13.4874eV
 LUMO    -10.1     0.082216 =       2.2372eV
 LUMO-HOMO         0.577869 =      15.7246eV

 EXPECTATION VALUE OF S**2:             2.65266715

 Occupation number threshold for canonical orbitals:  1.999000 (occupied),  0.001000 (virtual)

 Number of pseudo-canonical orbitals per symmetry:    4
 Number of active natural orbitals per symmetry:     12

 Natural orbitals saved to record    2200.1 (Orbital set 3)

 Orbital spaces for UNO-CAS (Min. occupation: 0.020  Max. occupation: 1.980):



 **********************************************************************************************************************************
 DATASETS  * FILE   NREC   LENGTH (MB)   RECORD NAMES
              1      19       19.35       500      610      700      900      950      970     1000      129      960     1100   
                                          VAR    BASINP    GEOM    SYMINP    ZMAT    AOBASIS   BASIS     P2S    ABASIS      S 
                                         1400     1410     1200     1210     1080     1600     1650     1700     2200   
                                           T        V       H0       H01     AOSYM     SMH    MOLCAS    OPER      UHF  

              2       5        0.49       700     1000      520     2200     5500   
                                         GEOM     BASIS   MCVARS     UHF     HINFO   

 PROGRAMS   *        TOTAL       UHF      UMP2       UHF       INT
 CPU TIMES  *         4.06      0.30      0.23      0.22      0.93
 REAL TIME  *         8.54 SEC
 DISK USED  *        73.35 MB      
 SF USED    *         1.39 MB      
 GA USED    *         0.00 MB       (max)       0.00 MB       (current)
 **********************************************************************************************************************************


1PROGRAM * UMP2 (Unrestricted open-shell)     Authors: H.-J. Werner, 2001


 Convergence thresholds:  THRVAR = 1.00D-12  THRDEN = 1.00D-08

 Number of core orbitals:           3 (   3 )
 Number of closed-shell orbitals:   6 (   6 )
 Number of active  orbitals:        2 (   2 )
 Number of external orbitals:      31 (  31 )

 Reading UHF information from record   2200.1

                               TOTAL       A-A         B-B         A-B
 Pair energies:            -0.31278489 -0.05456435 -0.03524765 -0.22297289
 Singles energies:          0.00000000  0.00000000  0.00000000

 Reference energy                    -146.673747612316
 Correlation energy                    -0.312784892675
 !UMP2 STATE 1.1 Energy              -146.986532504991


 **********************************************************************************************************************************
 DATASETS  * FILE   NREC   LENGTH (MB)   RECORD NAMES
              1      19       19.35       500      610      700      900      950      970     1000      129      960     1100   
                                          VAR    BASINP    GEOM    SYMINP    ZMAT    AOBASIS   BASIS     P2S    ABASIS      S 
                                         1400     1410     1200     1210     1080     1600     1650     1700     2200   
                                           T        V       H0       H01     AOSYM     SMH    MOLCAS    OPER      UHF  

              2       5        0.49       700     1000      520     2200     5500   
                                         GEOM     BASIS   MCVARS     UHF     HINFO   

 PROGRAMS   *        TOTAL      UMP2      UMP2       UHF       INT
 CPU TIMES  *         4.12      0.06      0.23      0.22      0.93
 REAL TIME  *         8.59 SEC
 DISK USED  *        73.35 MB      
 SF USED    *         1.39 MB      
 GA USED    *         0.00 MB       (max)       0.00 MB       (current)
 **********************************************************************************************************************************
    5 tasks completed, CPU=2s Elapsed=3s
 Starting task   6.  CPU=     2.35 sec, Elapsed=     3.43 sec
 Incrementing variable GY1              by -0.005292 ANG   to   -0.195789 ANG


 Recomputing integrals since geometry changed

1PROGRAM * SEWARD (Integral evaluation for generally contracted gaussian basis sets)     Author: Roland Lindh, 1990

 Geometry written to block  1 of record 700


 Point group  C1  



 ATOMIC COORDINATES

 NR  ATOM    CHARGE       X              Y              Z

   1  N       7.00   -1.993600965   -0.369987416    0.000000000
   2  C       6.00   -0.000000000    0.840155072    0.000000000
   3  N       7.00    1.993600965   -0.359987416    0.000000000

 Bond lengths in Bohr (Angstrom)

 1-2  2.332142717  2-3  2.326969446
     ( 1.234116778)     ( 1.231379201)

 Bond angles

  1-2-3  117.69385942

 NUCLEAR CHARGE:                   20
 NUMBER OF PRIMITIVE AOS:          81
 NUMBER OF SYMMETRY AOS:           78
 NUMBER OF CONTRACTIONS:           42   (  42A   )
 NUMBER OF CORE ORBITALS:           3   (   3A   )
 NUMBER OF VALENCE ORBITALS:       12   (  12A   )


 NUCLEAR REPULSION ENERGY   48.34769780

 EXTRA SYMMETRY OF AOS IN SYMMETRY 1:   1 1 1 1 1 2 1 1 2 1   1 2 1 2 1 1 1 1 1 2   1 1 2 1 1 2 1 2 1 1   1 1 1 2 1 1 2 1 1 2
                                        1 2

 Eigenvalues of metric

         1 0.518E-02 0.936E-02 0.282E-01 0.726E-01 0.732E-01 0.812E-01 0.101E+00 0.113E+00


 Contracted 2-electron integrals neglected if value below      1.0D-11
 AO integral compression algorithm  1   Integral accuracy      1.0D-11

     1.835 MB (compressed) written to integral file ( 40.7%)

     Node minimum: 0.524 MB, node maximum: 0.786 MB


 NUMBER OF SORTED TWO-ELECTRON INTEGRALS:     136353.     BUFFER LENGTH:  32768
 NUMBER OF SEGMENTS:   1  SEGMENT LENGTH:     136353      RECORD LENGTH: 524288

 Memory used in sort:       0.69 MW

 SORT1 READ      544483. AND WROTE       67518. INTEGRALS IN      1 RECORDS. CPU TIME:     0.03 SEC, REAL TIME:     0.03 SEC
 SORT2 READ      205875. AND WROTE      408156. INTEGRALS IN      6 RECORDS. CPU TIME:     0.01 SEC, REAL TIME:     0.01 SEC

 Node minimum:      135751.  Node maximum:      136353. integrals

 OPERATOR DM      FOR CENTER  0  COORDINATES:    0.000000    0.000000    0.000000
1PROGRAM * UHF-SCF       Authors: W. Meyer, H.-J. Werner


 NUMBER OF ELECTRONS:      11+    9-    SPACE SYMMETRY=1    SPIN SYMMETRY: Triplet 
 CONVERGENCE THRESHOLDS:    1.00E-07 (Density)    1.00E-08 (Energy)
 MAX. NUMBER OF ITERATIONS:     1000
 INTERPOLATION TYPE:            DIIS
 INTERPOLATION STEPS:              2 (START)      1 (STEP)
 LEVEL SHIFTS:                  0.20 (ALPHA)   0.20 (BETA) 

 Number of closed-shell orbitals:    9 (   9 )
 Number of open-shell orbitals:      2 (   2 )


 Molecular orbitals read from record     2200.2  Type=UHF/ALPHA (state 1.1)
 Molecular orbitals read from record     2200.2  Type=UHF/BETA (state 1.1)

 Molecular orbital dump at record        2200.1

 Initial alpha occupation  11
 Initial beta  occupation   9

 ITERATION    DDIFF          GRAD             ENERGY        2-EL.EN.            DIPOLE MOMENTS         DIIS
    1      0.000D+00      0.000D+00      -146.67348867    197.906304   -0.00013    0.48811   -0.00000    0
    2      0.224D-03      0.905D-04      -146.67349762    197.895103   -0.00106    0.48844   -0.00000    1
    3      0.128D-03      0.386D-04      -146.67350068    197.893830   -0.00112    0.48831    0.00000    2
    4      0.609D-04      0.197D-04      -146.67350185    197.894589   -0.00174    0.48828    0.00000    3
    5      0.424D-04      0.107D-04      -146.67350237    197.894754   -0.00212    0.48842    0.00000    4
    6      0.290D-04      0.571D-05      -146.67350253    197.894939   -0.00254    0.48864    0.00000    5
    7      0.104D-04      0.235D-05      -146.67350255    197.894946   -0.00266    0.48877    0.00000    6
    8      0.359D-05      0.114D-05      -146.67350256    197.894974   -0.00271    0.48882    0.00000    7
    9      0.179D-05      0.592D-06      -146.67350256    197.894980   -0.00273    0.48884    0.00000    8
   10      0.101D-05      0.314D-06      -146.67350256    197.894971   -0.00274    0.48884    0.00000    9
   11      0.603D-06      0.164D-06      -146.67350256    197.894971   -0.00275    0.48885    0.00000    9
   12      0.254D-06      0.679D-07      -146.67350256    197.894969   -0.00275    0.48885    0.00000    9
   13      0.975D-07      0.295D-07      -146.67350256    197.894969   -0.00275    0.48885    0.00000    9
   14      0.378D-07      0.126D-07      -146.67350256    197.894969   -0.00275    0.48885    0.00000    8
   15      0.220D-07      0.653D-08      -146.67350256    197.894969   -0.00275    0.48884    0.00000    8
 
 Final alpha occupancy:  11
 Final beta  occupancy:   9

 !UHF STATE 1.1 Energy               -146.673502557377
 Nuclear energy                        48.34769780
 One-electron energy                 -293.96868493
 Two-electron energy                   98.94748458
 Virial quotient                       -0.99775380
 !UHF STATE 1.1 Dipole moment          -0.00275352     0.48884498     0.00000000
 Dipole moment /Debye                  -0.00699830     1.24243864     0.00000000

 Orbital energies for positive spin:

         1.1          2.1          3.1          4.1          5.1          6.1          7.1          8.1          9.1         10.1
    -15.663872   -15.663352   -11.310267    -1.381779    -1.224625    -0.703051    -0.657386    -0.650504    -0.625082    -0.516583

        11.1         12.1         13.1
     -0.495471     0.085214     0.222627

 Orbital energies for negative spin:

         1.1          2.1          3.1          4.1          5.1          6.1          7.1          8.1          9.1         10.1
    -15.610643   -15.610393   -11.346809    -1.286425    -1.033176    -0.646037    -0.556000    -0.551941    -0.540318     0.082884

        11.1         12.1         13.1
      0.120805     0.133539     0.278416

 HOMO     11.1    -0.495471 =     -13.4825eV
 LUMO    -10.1     0.082884 =       2.2554eV
 LUMO-HOMO         0.578355 =      15.7378eV

 EXPECTATION VALUE OF S**2:             2.66270665

 Occupation number threshold for canonical orbitals:  1.999000 (occupied),  0.001000 (virtual)

 Number of pseudo-canonical orbitals per symmetry:    4
 Number of active natural orbitals per symmetry:     12

 Natural orbitals saved to record    2200.1 (Orbital set 3)

 Orbital spaces for UNO-CAS (Min. occupation: 0.020  Max. occupation: 1.980):



 **********************************************************************************************************************************
 DATASETS  * FILE   NREC   LENGTH (MB)   RECORD NAMES
              1      19       19.35       500      610      700      900      950      970     1000      129      960     1100   
                                          VAR    BASINP    GEOM    SYMINP    ZMAT    AOBASIS   BASIS     P2S    ABASIS      S 
                                         1400     1410     1200     1210     1080     1600     1650     1700     2200   
                                           T        V       H0       H01     AOSYM     SMH    MOLCAS    OPER      UHF  

              2       5        0.49       700     1000      520     2200     5500   
                                         GEOM     BASIS   MCVARS     UHF     HINFO   

 PROGRAMS   *        TOTAL       UHF      UMP2       UHF       INT
 CPU TIMES  *         4.42      0.30      0.23      0.22      0.93
 REAL TIME  *         9.03 SEC
 DISK USED  *        73.35 MB      
 SF USED    *         1.39 MB      
 GA USED    *         0.00 MB       (max)       0.00 MB       (current)
 **********************************************************************************************************************************


1PROGRAM * UMP2 (Unrestricted open-shell)     Authors: H.-J. Werner, 2001


 Convergence thresholds:  THRVAR = 1.00D-12  THRDEN = 1.00D-08

 Number of core orbitals:           3 (   3 )
 Number of closed-shell orbitals:   6 (   6 )
 Number of active  orbitals:        2 (   2 )
 Number of external orbitals:      31 (  31 )

 Reading UHF information from record   2200.1

                               TOTAL       A-A         B-B         A-B
 Pair energies:            -0.31239326 -0.05454601 -0.03517988 -0.22266738
 Singles energies:          0.00000000  0.00000000  0.00000000

 Reference energy                    -146.673502557377
 Correlation energy                    -0.312393264491
 !UMP2 STATE 1.1 Energy              -146.985895821868


 **********************************************************************************************************************************
 DATASETS  * FILE   NREC   LENGTH (MB)   RECORD NAMES
              1      19       19.35       500      610      700      900      950      970     1000      129      960     1100   
                                          VAR    BASINP    GEOM    SYMINP    ZMAT    AOBASIS   BASIS     P2S    ABASIS      S 
                                         1400     1410     1200     1210     1080     1600     1650     1700     2200   
                                           T        V       H0       H01     AOSYM     SMH    MOLCAS    OPER      UHF  

              2       5        0.49       700     1000      520     2200     5500   
                                         GEOM     BASIS   MCVARS     UHF     HINFO   

 PROGRAMS   *        TOTAL      UMP2      UMP2       UHF       INT
 CPU TIMES  *         4.47      0.05      0.23      0.22      0.93
 REAL TIME  *         9.13 SEC
 DISK USED  *        73.35 MB      
 SF USED    *         1.39 MB      
 GA USED    *         0.00 MB       (max)       0.00 MB       (current)
 **********************************************************************************************************************************
 Starting task   7.  CPU=     2.75 sec, Elapsed=     3.96 sec
 Incrementing variable GZ1              by  0.005292 ANG   to    0.005292 ANG


 Recomputing integrals since geometry changed

1PROGRAM * SEWARD (Integral evaluation for generally contracted gaussian basis sets)     Author: Roland Lindh, 1990

 Geometry written to block  1 of record 700


 Point group  C1  



 ATOMIC COORDINATES

 NR  ATOM    CHARGE       X              Y              Z

   1  N       7.00   -1.993600965   -0.359987416    0.010000000
   2  C       6.00   -0.000000000    0.840155072    0.000000000
   3  N       7.00    1.993600965   -0.359987416    0.000000000

 Bond lengths in Bohr (Angstrom)

 1-2  2.326990933  2-3  2.326969446
     ( 1.231390572)     ( 1.231379201)

 Bond angles

  1-2-3  117.90406177

 NUCLEAR CHARGE:                   20
 NUMBER OF PRIMITIVE AOS:          81
 NUMBER OF SYMMETRY AOS:           78
 NUMBER OF CONTRACTIONS:           42   (  42A   )
 NUMBER OF CORE ORBITALS:           3   (   3A   )
 NUMBER OF VALENCE ORBITALS:       12   (  12A   )


 NUCLEAR REPULSION ENERGY   48.38756879


 Eigenvalues of metric

         1 0.518E-02 0.932E-02 0.281E-01 0.725E-01 0.727E-01 0.808E-01 0.100E+00 0.113E+00


 Contracted 2-electron integrals neglected if value below      1.0D-11
 AO integral compression algorithm  1   Integral accuracy      1.0D-11

     2.359 MB (compressed) written to integral file ( 55.0%)

     Node minimum: 0.524 MB, node maximum: 1.049 MB


 NUMBER OF SORTED TWO-ELECTRON INTEGRALS:     136353.     BUFFER LENGTH:  32768
 NUMBER OF SEGMENTS:   1  SEGMENT LENGTH:     136353      RECORD LENGTH: 524288

 Memory used in sort:       0.69 MW

 SORT1 READ      544483. AND WROTE      106957. INTEGRALS IN      1 RECORDS. CPU TIME:     0.03 SEC, REAL TIME:     0.03 SEC
 SORT2 READ      324973. AND WROTE      408156. INTEGRALS IN      9 RECORDS. CPU TIME:     0.00 SEC, REAL TIME:     0.02 SEC

 Node minimum:      135751.  Node maximum:      136353. integrals

 OPERATOR DM      FOR CENTER  0  COORDINATES:    0.000000    0.000000    0.000000
1PROGRAM * UHF-SCF       Authors: W. Meyer, H.-J. Werner


 NUMBER OF ELECTRONS:      11+    9-    SPACE SYMMETRY=1    SPIN SYMMETRY: Triplet 
 CONVERGENCE THRESHOLDS:    1.00E-07 (Density)    1.00E-08 (Energy)
 MAX. NUMBER OF ITERATIONS:     1000
 INTERPOLATION TYPE:            DIIS
 INTERPOLATION STEPS:              2 (START)      1 (STEP)
 LEVEL SHIFTS:                  0.20 (ALPHA)   0.20 (BETA) 

 Number of closed-shell orbitals:    9 (   9 )
 Number of open-shell orbitals:      2 (   2 )


 Molecular orbitals read from record     2200.2  Type=UHF/ALPHA (state 1.1)
 Molecular orbitals read from record     2200.2  Type=UHF/BETA (state 1.1)

 Molecular orbital dump at record        2200.1

 Initial alpha occupation  11
 Initial beta  occupation   9

 ITERATION    DDIFF          GRAD             ENERGY        2-EL.EN.            DIPOLE MOMENTS         DIIS
    1      0.000D+00      0.000D+00      -146.67362126    197.967429   -0.00000    0.48731   -0.00075    0
    2      0.166D-03      0.825D-04      -146.67362869    197.967386   -0.00001    0.48731   -0.00120    1
    3      0.116D-03      0.369D-04      -146.67363124    197.967385   -0.00001    0.48730   -0.00136    2
    4      0.470D-04      0.149D-04      -146.67363179    197.967385   -0.00001    0.48730   -0.00147    3
    5      0.227D-04      0.737D-05      -146.67363196    197.967388   -0.00001    0.48730   -0.00166    4
    6      0.111D-04      0.367D-05      -146.67363202    197.967387   -0.00001    0.48730   -0.00185    5
    7      0.586D-05      0.163D-05      -146.67363203    197.967388   -0.00001    0.48730   -0.00198    6
    8      0.167D-05      0.525D-06      -146.67363203    197.967388   -0.00001    0.48730   -0.00201    7
    9      0.626D-06      0.249D-06      -146.67363203    197.967387   -0.00001    0.48730   -0.00202    8
   10      0.355D-06      0.124D-06      -146.67363203    197.967388   -0.00001    0.48730   -0.00203    8
   11      0.166D-06      0.474D-07      -146.67363203    197.967387   -0.00001    0.48730   -0.00203    8
   12      0.533D-07      0.186D-07      -146.67363203    197.967387   -0.00001    0.48730   -0.00203    8
[...]
                               TOTAL       A-A         B-B         A-B
 Pair energies:            -0.31258583 -0.05455507 -0.03521333 -0.22281743
 Singles energies:          0.00000000  0.00000000  0.00000000

 Reference energy                    -146.673630037652
 Correlation energy                    -0.312585825952
 !UMP2 STATE 1.1 Energy              -146.986215863604


 **********************************************************************************************************************************
 DATASETS  * FILE   NREC   LENGTH (MB)   RECORD NAMES
              1      19       19.35       500      610      700      900      950      970     1000      129      960     1100   
                                          VAR    BASINP    GEOM    SYMINP    ZMAT    AOBASIS   BASIS     P2S    ABASIS      S 
                                         1400     1410     1200     1210     1080     1600     1650     1700     2200   
                                           T        V       H0       H01     AOSYM     SMH    MOLCAS    OPER      UHF  

              2       5        0.49       700     1000      520     2200     5500   
                                         GEOM     BASIS   MCVARS     UHF     HINFO   

 PROGRAMS   *        TOTAL      UMP2      UMP2       UHF       INT
 CPU TIMES  *        12.72      0.05      0.23      0.22      0.93
 REAL TIME  *        22.29 SEC
 DISK USED  *        73.90 MB      
 SF USED    *         1.39 MB      
 GA USED    *         0.00 MB       (max)       0.00 MB       (current)
 **********************************************************************************************************************************

 Numerical UMP2 hessian completed. CPU-time:    11.95 sec, Elapsed:    17.12 sec

 UMP2 hessian saved to record  5300.2

 FREQUENCIES * CALCULATION OF HARMONIC VIBRATIONAL SPECTRA FOR UMP2


 Permanent Dipole Moment [debye]
   1-  3    0.000000    0.000000    0.000000

 Dipole Moment Norm    0.0000000 [debye]

 Dipole Moment Derivatives [debye/ang]
                   1             2             3             4             5             6             7             8
         1     0.0000000     0.0000000     0.0000000     0.0000000     0.0000000     0.0000000     0.0000000     0.0000000
         2     0.0000000     0.0000000     0.0000000     0.0000000     0.0000000     0.0000000     0.0000000     0.0000000
         3     0.0000000     0.0000000     0.0000000     0.0000000     0.0000000     0.0000000     0.0000000     0.0000000
                   9
         1     0.0000000
         2     0.0000000
         3     0.0000000

 Force Constants (Second Derivatives of the Energy) in [a.u.]
                             GX1         GY1         GZ1         GX2         GY2     
           GX1           0.5085681
           GY1           0.1849698   0.0902483
           GZ1           0.0000000   0.0000000  -0.0045145
           GX2          -0.1572649  -0.0793049   0.0000000   0.3145298
           GY2          -0.2967456  -0.1707550   0.0000000   0.0000000   0.3415101
           GZ2           0.0000000   0.0000000  -0.0281254   0.0000000   0.0000000
           GX3          -0.3513032  -0.1103261   0.0000000  -0.1572649   0.2967456
           GY3           0.1103261   0.0805067   0.0000000   0.0793049  -0.1707550
           GZ3           0.0000000   0.0000000   0.0326369   0.0000000   0.0000000
                             GZ2         GX3         GY3         GZ3     
           GZ2           0.0562448
           GX3           0.0000000   0.5085681
           GY3           0.0000000  -0.1849698   0.0902483
           GZ3          -0.0281254   0.0000000   0.0000000  -0.0045145


 Atomic Masses
   1-  3   14.006700   12.011000   14.006700

 Mass weighted Second Derivative Matrix
                             GX1         GY1         GZ1         GX2         GY2     
           GX1           0.0363089
           GY1           0.0132058   0.0064432
           GZ1           0.0000000   0.0000000  -0.0003223
           GX2          -0.0121248  -0.0061142   0.0000000   0.0261868
           GY2          -0.0228785  -0.0131649   0.0000000   0.0000000   0.0284331
           GZ2           0.0000000   0.0000000  -0.0021684   0.0000000   0.0000000
           GX3          -0.0250811  -0.0078767   0.0000000  -0.0121248   0.0228785
           GY3           0.0078767   0.0057477   0.0000000   0.0061142  -0.0131649
           GZ3           0.0000000   0.0000000   0.0023301   0.0000000   0.0000000
                             GZ2         GX3         GY3         GZ3     
           GZ2           0.0046828
           GX3           0.0000000   0.0363089
           GY3           0.0000000  -0.0132058   0.0064432
           GZ3          -0.0021684   0.0000000   0.0000000  -0.0003223


 Mass Weighted 2nd Derivative Matrix Eigenvalues
   1-  9   -0.002652   -0.001962   -0.000000   -0.000000    0.000037    0.006691    0.011018    0.040035    0.090996

 Mass Weighted 2nd Derivative Matrix Eigenvectors
                   1             2             3             4             5             6             7             8
         1     0.0000000    -0.0152923     0.0024808     0.0000000     0.5998852     0.0000000     0.4302120    -0.3740373
         2     0.0000000     0.6783377     0.5902703     0.0000000    -0.0928933    -0.0000000    -0.3102384    -0.1767167
         3     0.7071068    -0.0000000    -0.0000000     0.5915615    -0.0000000    -0.3873693    -0.0000000    -0.0000000
         4     0.0000000     0.2815106    -0.0000000     0.0000000     0.5128520     0.0000000    -0.0000000     0.8110084
         5     0.0000000     0.0000000     0.5505902     0.0000000     0.0000000    -0.0000000     0.6613166     0.0000000
         6     0.0000000     0.0000000    -0.0000000     0.5478229    -0.0000000     0.8365943     0.0000000     0.0000000
         7     0.0000000    -0.0152923    -0.0024808    -0.0000000     0.5998852     0.0000000    -0.4302120    -0.3740373
         8    -0.0000000    -0.6783377     0.5902703     0.0000000     0.0928933    -0.0000000    -0.3102384     0.1767167
         9    -0.7071068     0.0000000    -0.0000000     0.5915615    -0.0000000    -0.3873693    -0.0000000    -0.0000000
                   9
         1     0.5611698
         2     0.2352299
         3     0.0000000
         4     0.0000000
         5    -0.5094220
         6     0.0000000
         7    -0.5611698
         8     0.2352299
         9    -0.0000000

 Imaginary Vibration  Wavenumber
        Nr             [1/cm] 
        1              264.74
        2              227.70
        3                2.83
        4                2.82

   Low Vibration      Wavenumber
        Nr             [1/cm] 
        1               31.23

     Vibration        Wavenumber
        Nr             [1/cm] 
        1              420.48
        2              539.58
        3             1028.54
        4             1550.64

 FREQUENCIES * CALCULATION OF NORMAL MODES FOR UMP2


 Atomic Coordinates

  Nr  Atom  Charge       X              Y              Z

   1   N     7.00   -1.993600965   -0.359987416    0.000000000
   2   C     6.00   -0.000000000    0.840155072    0.000000000
   3   N     7.00    1.993600965   -0.359987416    0.000000000

 Frequencies dumped to record   5400.2

 Gradient norm at reference geometry: 0.14158D+00

 ?WARNING: GRADIENT NORM NOT ZERO!

 Normal Modes

                              1 B1        2 A1        3 B2        4 Err
 Wavenumbers [cm-1]          420.48      539.58     1028.54     1550.64
 Intensities [km/mol]          0.00        0.00        0.00        0.00
 Intensities [relative]        0.00        0.00        0.00        0.00
           GX1              0.00000     0.11495    -0.09994     0.14994
           GY1             -0.00000    -0.08289    -0.04722     0.06285
           GZ1             -0.10350    -0.00000    -0.00000     0.00000
           GX2              0.00000    -0.00000     0.23401     0.00000
           GY2             -0.00000     0.19082     0.00000    -0.14699
           GZ2              0.24139     0.00000     0.00000     0.00000
           GX3              0.00000    -0.11495    -0.09994    -0.14994
           GY3             -0.00000    -0.08289     0.04722     0.06285
           GZ3             -0.10350    -0.00000    -0.00000    -0.00000


 Normal Modes of imaginary frequencies

                                  1           2           3           4
 Wavenumbers [cm-1]          264.74      227.70        2.83        2.82
 Intensities [km/mol]          0.00        0.00        0.00        0.00
 Intensities [relative]        0.00        0.00        0.00        0.00
           GX1              0.00000    -0.00409     0.00066     0.00000
           GY1              0.00000     0.18125     0.15772     0.00000
           GZ1              0.18894    -0.00000    -0.00000     0.15806
           GX2              0.00000     0.08123    -0.00000     0.00000
           GY2              0.00000     0.00000     0.15887     0.00000
           GZ2              0.00000     0.00000    -0.00000     0.15807
           GX3              0.00000    -0.00409    -0.00066    -0.00000
           GY3             -0.00000    -0.18125     0.15772     0.00000
           GZ3             -0.18894     0.00000    -0.00000     0.15806


 Normal Modes of low/zero frequencies

                                  1
 Wavenumbers [cm-1]           31.23
 Intensities [km/mol]          0.00
 Intensities [relative]        0.00
           GX1              0.16029
           GY1             -0.02482
           GZ1             -0.00000
           GX2              0.14798
           GY2              0.00000
           GZ2             -0.00000
           GX3              0.16029
           GY3              0.02482
           GZ3             -0.00000


 Zero point energy:  0.00806300 [H]     1769.62 [1/CM]       21.17 [KJ/MOL]

 Recomputing wavefunction at initial geometry


 Recomputing integrals since geometry changed

1PROGRAM * SEWARD (Integral evaluation for generally contracted gaussian basis sets)     Author: Roland Lindh, 1990

 Geometry written to block  1 of record 700


 Point group  C1  



 ATOMIC COORDINATES

 NR  ATOM    CHARGE       X              Y              Z

   1  N       7.00   -1.993600965   -0.359987416    0.000000000
   2  C       6.00   -0.000000000    0.840155072    0.000000000
   3  N       7.00    1.993600965   -0.359987416    0.000000000

 Bond lengths in Bohr (Angstrom)

 1-2  2.326969446  2-3  2.326969446
     ( 1.231379201)     ( 1.231379201)

 Bond angles

  1-2-3  117.90434194

 NUCLEAR CHARGE:                   20
 NUMBER OF PRIMITIVE AOS:          81
 NUMBER OF SYMMETRY AOS:           78
 NUMBER OF CONTRACTIONS:           42   (  42A   )
 NUMBER OF CORE ORBITALS:           3   (   3A   )
 NUMBER OF VALENCE ORBITALS:       12   (  12A   )


 NUCLEAR REPULSION ENERGY   48.38777411

 EXTRA SYMMETRY OF AOS IN SYMMETRY 1:   1 1 1 1 1 2 1 1 2 1   1 2 1 2 1 1 1 1 1 2   1 1 2 1 1 2 1 2 1 1   1 1 1 2 1 1 2 1 1 2
                                        1 2

 Eigenvalues of metric

         1 0.518E-02 0.932E-02 0.281E-01 0.725E-01 0.727E-01 0.808E-01 0.100E+00 0.113E+00


 Contracted 2-electron integrals neglected if value below      1.0D-11
 AO integral compression algorithm  1   Integral accuracy      1.0D-11

     1.835 MB (compressed) written to integral file ( 36.2%)

     Node minimum: 0.524 MB, node maximum: 0.786 MB


 NUMBER OF SORTED TWO-ELECTRON INTEGRALS:     136353.     BUFFER LENGTH:  32768
 NUMBER OF SEGMENTS:   1  SEGMENT LENGTH:     136353      RECORD LENGTH: 524288

 Memory used in sort:       0.69 MW

 SORT1 READ      544483. AND WROTE       61193. INTEGRALS IN      1 RECORDS. CPU TIME:     0.01 SEC, REAL TIME:     0.01 SEC
 SORT2 READ      187869. AND WROTE      408156. INTEGRALS IN      9 RECORDS. CPU TIME:     0.01 SEC, REAL TIME:     0.01 SEC

 Node minimum:      135751.  Node maximum:      136353. integrals

 OPERATOR DM      FOR CENTER  0  COORDINATES:    0.000000    0.000000    0.000000
1PROGRAM * UHF-SCF       Authors: W. Meyer, H.-J. Werner


 NUMBER OF ELECTRONS:      11+    9-    SPACE SYMMETRY=1    SPIN SYMMETRY: Triplet 
 CONVERGENCE THRESHOLDS:    1.00E-06 (Density)    1.00E-08 (Energy)
 MAX. NUMBER OF ITERATIONS:     1000
 INTERPOLATION TYPE:            DIIS
 INTERPOLATION STEPS:              2 (START)      1 (STEP)
 LEVEL SHIFTS:                  0.20 (ALPHA)   0.20 (BETA) 

 Number of closed-shell orbitals:    9 (   9 )
 Number of open-shell orbitals:      2 (   2 )


 Molecular orbitals read from record     2200.2  Type=UHF/ALPHA (state 1.1)
 Molecular orbitals read from record     2200.2  Type=UHF/BETA (state 1.1)

 Molecular orbital dump at record        2200.2

 Initial alpha occupation  11
 Initial beta  occupation   9

 ITERATION    DDIFF          GRAD             ENERGY        2-EL.EN.            DIPOLE MOMENTS         DIIS
    1      0.000D+00      0.000D+00      -146.67363106    197.967771    0.00000    0.48731   -0.00000    0
    2      0.235D-07      0.195D-07      -146.67363106    197.967771    0.00000    0.48731   -0.00000    1
    3      0.324D-07      0.121D-07      -146.67363106    197.967771    0.00000    0.48731    0.00000    2
 
 Final alpha occupancy:  11
 Final beta  occupancy:   9

 !UHF STATE 1.1 Energy               -146.673631058906
 Nuclear energy                        48.38777411
 One-electron energy                 -294.04529088
 Two-electron energy                   98.98388571
 Virial quotient                       -0.99770568
 !UHF STATE 1.1 Dipole moment           0.00000000     0.48730746     0.00000000
 Dipole moment /Debye                   0.00000000     1.23853090     0.00000000

 Orbital energies for positive spin:

         1.1          2.1          3.1          4.1          5.1          6.1          7.1          8.1          9.1         10.1
    -15.663569   -15.663490   -11.310074    -1.382327    -1.225380    -0.703046    -0.657824    -0.650762    -0.625444    -0.516573

        11.1         12.1         13.1
     -0.495561     0.085830     0.223178

 Orbital energies for negative spin:

         1.1          2.1          3.1          4.1          5.1          6.1          7.1          8.1          9.1         10.1
    -15.610514   -15.610487   -11.346482    -1.287093    -1.034290    -0.645582    -0.556171    -0.552200    -0.540651     0.082550

        11.1         12.1         13.1
      0.121391     0.132967     0.279267

 HOMO     11.1    -0.495561 =     -13.4849eV
 LUMO    -10.1     0.082550 =       2.2463eV
 LUMO-HOMO         0.578111 =      15.7312eV

 EXPECTATION VALUE OF S**2:             2.65770408

 Occupation number threshold for canonical orbitals:  1.999000 (occupied),  0.001000 (virtual)

 Number of pseudo-canonical orbitals per symmetry:    4
 Number of active natural orbitals per symmetry:     12

 Natural orbitals saved to record    2200.2 (Orbital set 3)

 Orbital spaces for UNO-CAS (Min. occupation: 0.020  Max. occupation: 1.980):



 **********************************************************************************************************************************
 DATASETS  * FILE   NREC   LENGTH (MB)   RECORD NAMES
              1      18       19.17       500      610      700      900      950      970     1000      129      960     1100   
                                          VAR    BASINP    GEOM    SYMINP    ZMAT    AOBASIS   BASIS     P2S    ABASIS      S 
                                         1400     1410     1200     1210     1080     1600     1650     1700   
                                           T        V       H0       H01     AOSYM     SMH    MOLCAS    OPER   

              2       7        0.48       700     1000      520     2200     5300     5400     5450   
                                         GEOM     BASIS   MCVARS     UHF     HESS     FREQ     NMOD   

 PROGRAMS   *        TOTAL       UHF      UMP2       UHF       INT
 CPU TIMES  *        13.02      0.28      0.23      0.22      0.93
 REAL TIME  *        22.74 SEC
 DISK USED  *        73.90 MB      
 SF USED    *         1.39 MB      
 GA USED    *         0.00 MB       (max)       0.00 MB       (current)
 **********************************************************************************************************************************


1PROGRAM * UMP2 (Unrestricted open-shell)     Authors: H.-J. Werner, 2001


 Convergence thresholds:  THRVAR = 1.00D-12  THRDEN = 1.00D-08

 Number of core orbitals:           3 (   3 )
 Number of closed-shell orbitals:   6 (   6 )
 Number of active  orbitals:        2 (   2 )
 Number of external orbitals:      31 (  31 )

 Reading UHF information from record   2200.2

                               TOTAL       A-A         B-B         A-B
 Pair energies:            -0.31258752 -0.05455516 -0.03521362 -0.22281875
 Singles energies:          0.00000000  0.00000000  0.00000000

 Reference energy                    -146.673631058906
 Correlation energy                    -0.312587522864
 !UMP2 STATE 1.1 Energy              -146.986218581770


 **********************************************************************************************************************************
 DATASETS  * FILE   NREC   LENGTH (MB)   RECORD NAMES
              1      18       19.17       500      610      700      900      950      970     1000      129      960     1100   
                                          VAR    BASINP    GEOM    SYMINP    ZMAT    AOBASIS   BASIS     P2S    ABASIS      S 
                                         1400     1410     1200     1210     1080     1600     1650     1700   
                                           T        V       H0       H01     AOSYM     SMH    MOLCAS    OPER   

              2       7        0.48       700     1000      520     2200     5300     5400     5450   
                                         GEOM     BASIS   MCVARS     UHF     HESS     FREQ     NMOD   

 PROGRAMS   *        TOTAL      UMP2      UMP2       UHF       INT
 CPU TIMES  *        13.09      0.05      0.23      0.22      0.93
 REAL TIME  *        22.89 SEC
 DISK USED  *        73.90 MB      
 SF USED    *         1.39 MB      
 GA USED    *         0.00 MB       (max)       0.00 MB       (current)
 **********************************************************************************************************************************


 **********************************************************************************************************************************
 DATASETS  * FILE   NREC   LENGTH (MB)   RECORD NAMES
              1      18       19.17       500      610      700      900      950      970     1000      129      960     1100   
                                          VAR    BASINP    GEOM    SYMINP    ZMAT    AOBASIS   BASIS     P2S    ABASIS      S 
                                         1400     1410     1200     1210     1080     1600     1650     1700   
                                           T        V       H0       H01     AOSYM     SMH    MOLCAS    OPER   

              2       7        0.48       700     1000      520     2200     5300     5400     5450   
                                         GEOM     BASIS   MCVARS     UHF     HESS     FREQ     NMOD   

 PROGRAMS   *        TOTAL      FREQ      UMP2       UHF       INT
 CPU TIMES  *        13.09     11.07      0.23      0.22      0.93
 REAL TIME  *        22.89 SEC
 DISK USED  *        73.90 MB      
 SF USED    *         1.39 MB      
 GA USED    *         0.00 MB       (max)       0.00 MB       (current)
 **********************************************************************************************************************************

 UMP2/cc-pVDZ energy=   -146.986218581770

        UMP2            UHF-SCF 
   -146.98621868   -146.67363106
 **********************************************************************************************************************************
 Variable memory released
