
 Primary working directories    : /scratch/kmoore
 Secondary working directories  : /scratch/kmoore
 Wavefunction directory         : /scratch/kmoore/
 Main file repository           : /scratch/kmoore/

 SHA1      : b6b3a4772808bb2d43777f23454e145ddfe12dc3
 NAME      : 2015.1.1
 ARCHNAME  : linux/x86_64
 FC        : /soft/mvapich2/2.2b_psm/intel-15.0/bin/mpif90
 BLASLIB   : -L/soft/intel/15.0.1/composer_xe_2015.0.090/mkl/lib/intel64 -lmkl_intel_ilp64 -lmkl_sequential -lmkl_core
 id        : anlgov

 Nodes     nprocs
 b442         7
 Number of processes for MPI-2 version of Molpro:   nprocs(total)=    8   nprocs(compute)=    7   nprocs(helper)=    1

 Using customized tuning parameters: mindgm=1; mindgv=20; mindgc=4; mindgr=1; noblas=0; minvec=7
 default implementation of scratch files=sf  

 ***,title
 memory,1000,m
 
 symmetry,z
 geometry
 N     -0.261771253943759    -0.286020988794038     0.000000000000000
 N     -1.294808085791807     0.174839490940442     0.000000000000000
 O      1.362740353561964     0.097336197280055     0.000000000000000
 end
 
 nn(1)=1
 nn(2)=2
 nn(3)=3
 
 basis=aug-cc-pVDZ
 {hf,maxit=1000
   wf,22,1,2,0}
 
 {multi,maxit=40;close,5;noextra;failsafe;
   wf,22,1,2,0}
 
 {rs2,shift=0.25;close,5;maxiter,100000,100000;wf,22,1,2,0}
 
 {freq
  print,hessian}
 

 Variables initialized (889), CPU time= 0.00 sec
 Commands  initialized (702), CPU time= 0.01 sec, 572 directives.
 Default parameters read. Elapsed time= 0.06 sec

 Checking input...
 Passed
1


                                         ***  PROGRAM SYSTEM MOLPRO  ***
                                       Copyright, TTI GmbH Stuttgart, 2015
                                    Version 2015.1 linked Jan  8 2016 07:59:11


 **********************************************************************************************************************************
 LABEL *   title                                                                         
  64 bit mpp version                                                                     DATE: 04-Mar-19          TIME: 12:15:50  
 **********************************************************************************************************************************

 SHA1:             b6b3a4772808bb2d43777f23454e145ddfe12dc3
 **********************************************************************************************************************************

 Variable memory set to 1000000000 words,  buffer space   230000 words

 ZSYMEL=Z  
 

Geometry recognized as XYZ

 SETTING NN(1)          =         1.00000000                                  
 SETTING NN(2)          =         2.00000000                                  
 SETTING NN(3)          =         3.00000000                                  
 SETTING BASIS          =    AUG-CC-PVDZ


 Recomputing integrals since basis changed


 Using spherical harmonics

 Library entry N      S aug-cc-pVDZ          selected for orbital group  1
 Library entry N      P aug-cc-pVDZ          selected for orbital group  1
 Library entry N      D aug-cc-pVDZ          selected for orbital group  1
 Library entry O      S aug-cc-pVDZ          selected for orbital group  2
 Library entry O      P aug-cc-pVDZ          selected for orbital group  2
 Library entry O      D aug-cc-pVDZ          selected for orbital group  2

1PROGRAM * SEWARD (Integral evaluation for generally contracted gaussian basis sets)     Author: Roland Lindh, 1990

 Geometry written to block  1 of record 700


 Point group  Cs  



 ATOMIC COORDINATES

 NR  ATOM    CHARGE       X              Y              Z

   1  N       7.00   -0.494675977   -0.540501335    0.000000000
   2  N       7.00   -2.446832666    0.330398754    0.000000000
   3  O       8.00    2.575206047    0.183938755    0.000000000

 Bond lengths in Bohr (Angstrom)

 1-2  2.137611448  1-3  3.154201815
     ( 1.131175264)     ( 1.669131719)

 Bond angles

  2-1-3  142.67938169

 NUCLEAR CHARGE:                   22
 NUMBER OF PRIMITIVE AOS:         111
 NUMBER OF SYMMETRY AOS:          105
 NUMBER OF CONTRACTIONS:           69   (  48A'  +  21A"  )
 NUMBER OF CORE ORBITALS:           3   (   3A'  +   0A"  )
 NUMBER OF VALENCE ORBITALS:       12   (   9A'  +   3A"  )


 NUCLEAR REPULSION ENERGY   51.82298786

 Eigenvalues of metric

         1 0.133E-03 0.570E-03 0.265E-02 0.465E-02 0.106E-01 0.184E-01 0.325E-01 0.376E-01
         2 0.104E-01 0.372E-01 0.820E-01 0.161E+00 0.173E+00 0.254E+00 0.328E+00 0.361E+00


 Contracted 2-electron integrals neglected if value below      1.0D-11
 AO integral compression algorithm  1   Integral accuracy      1.0D-11

     10.224 MB (compressed) written to integral file ( 59.7%)

     Node minimum: 1.311 MB, node maximum: 1.573 MB


 NUMBER OF SORTED TWO-ELECTRON INTEGRALS:     219723.     BUFFER LENGTH:  32768
 NUMBER OF SEGMENTS:   1  SEGMENT LENGTH:     219723      RECORD LENGTH: 524288

 Memory used in sort:       0.78 MW

 SORT1 READ     2065561. AND WROTE      212970. INTEGRALS IN      1 RECORDS. CPU TIME:     0.03 SEC, REAL TIME:     0.02 SEC
 SORT2 READ     1485909. AND WROTE     1533840. INTEGRALS IN     35 RECORDS. CPU TIME:     0.01 SEC, REAL TIME:     0.01 SEC

 Node minimum:      218517.  Node maximum:      219723. integrals

 OPERATOR DM      FOR CENTER  0  COORDINATES:    0.000000    0.000000    0.000000


 **********************************************************************************************************************************
 DATASETS  * FILE   NREC   LENGTH (MB)   RECORD NAMES
              1      18       19.21       500      610      700      900      950      970     1000      129      960     1100   
                                          VAR    BASINP    GEOM    SYMINP    ZMAT    AOBASIS   BASIS     P2S    ABASIS      S 
                                         1400     1410     1200     1210     1080     1600     1650     1700   
                                           T        V       H0       H01     AOSYM     SMH    MOLCAS    OPER   

 PROGRAMS   *        TOTAL       INT
 CPU TIMES  *         0.43      0.33
 REAL TIME  *         0.92 SEC
 DISK USED  *        36.57 MB      
 GA USED    *         0.00 MB       (max)       0.00 MB       (current)
 **********************************************************************************************************************************

1PROGRAM * RHF-SCF (OPEN SHELL)       Authors: W. Meyer, H.-J. Werner


 NUMBER OF ELECTRONS:      12+   10-    SPACE SYMMETRY=1    SPIN SYMMETRY: Triplet 
 CONVERGENCE THRESHOLDS:    1.00E-06 (Density)    1.00E-07 (Energy)
 MAX. NUMBER OF ITERATIONS:     1000
 INTERPOLATION TYPE:            DIIS
 INTERPOLATION STEPS:              2 (START)      1 (STEP)
 LEVEL SHIFTS:                 -0.60 (CLOSED) -0.30 (OPEN) 



 Orbital guess generated from atomic densities. Full valence occupancy:   12   3

 Molecular orbital dump at record        2100.2

 Initial alpha occupancy:  10   2
 Initial beta  occupancy:   8   2
 Wave function symmetry:    1

 ITERATION    DDIFF          GRAD             ENERGY        2-EL.EN.            DIPOLE MOMENTS         DIIS   ORB.
    1      0.000D+00      0.000D+00      -183.50148291    232.312395   -1.10596   -0.26821    0.00000    0    start
    2      0.000D+00      0.112D-01      -183.59932177    235.071160   -0.32729   -0.05305    0.00000    1    diag,B
    3      0.191D-01      0.487D-02      -183.62111531    235.512536   -0.31953   -0.08084    0.00000    2    diag,B
    4      0.822D-02      0.242D-02      -183.63752507    235.739544   -0.25704   -0.05954    0.00000    3    diag,B
    5      0.468D-02      0.168D-02      -183.64914001    235.898059   -0.20519   -0.05395    0.00000    4    diag,B
    6      0.475D-02      0.105D-02      -183.65430209    235.992040   -0.16869   -0.04928    0.00000    5    diag,B
    7      0.358D-02      0.559D-03      -183.65557958    236.028711   -0.13203   -0.05159    0.00000    6    fixocc
    8      0.237D-02      0.173D-03      -183.65562836    236.039647   -0.12858   -0.04967    0.00000    7    diag,B
    9      0.458D-03      0.669D-04      -183.65563869    236.039312   -0.12158   -0.04990    0.00000    8    diag,B
   10      0.204D-03      0.301D-04      -183.65564039    236.041707   -0.11923   -0.04984    0.00000    9    orth
   11      0.702D-04      0.133D-04      -183.65564076    236.040419   -0.11870   -0.04983    0.00000    9    diag,B
   12      0.548D-04      0.712D-05      -183.65564088    236.041119   -0.11806   -0.04991    0.00000    9    diag,B
   13      0.227D-04      0.332D-05      -183.65564091    236.040985   -0.11791   -0.04993    0.00000    9    diag,B
   14      0.127D-04      0.124D-05      -183.65564091    236.040966   -0.11793   -0.04993    0.00000    9    diag,B
   15      0.403D-05      0.480D-06      -183.65564091    236.040932   -0.11797   -0.04994    0.00000    9    diag,B
   16      0.209D-05      0.170D-06      -183.65564091    236.040934   -0.11797   -0.04994    0.00000    9    diag,B
   17      0.557D-06      0.840D-07      -183.65564091    236.040935   -0.11797   -0.04993    0.00000    0    orth

 Final alpha occupancy:  10   2
 Final beta  occupancy:   8   2

 !RHF STATE 1.1 Energy               -183.655640910212
 Nuclear energy                        51.82298786
 One-electron energy                 -353.49909607
 Two-electron energy                  118.02046730
 Virial quotient                       -1.00033351
 !RHF STATE 1.1 Dipole moment          -0.11797139    -0.04993475     0.00000000
 Dipole moment /Debye                  -0.29983372    -0.12691316     0.00000000

 Orbital energies:

         1.1          2.1          3.1          4.1          5.1          6.1          7.1          8.1          9.1         10.1
    -20.659595   -15.717663   -15.710336    -1.470590    -1.276453    -0.814531    -0.661997    -0.620995    -0.687862    -0.561720

        11.1         12.1
      0.102661     0.113458

         1.2          2.2          3.2          4.2
     -0.632288    -0.539842     0.113774     0.156435

 HOMO      2.2    -0.539842 =     -14.6899eV
 LUMO     11.1     0.102661 =       2.7936eV
 LUMO-HOMO         0.642503 =      17.4834eV


 **********************************************************************************************************************************
 DATASETS  * FILE   NREC   LENGTH (MB)   RECORD NAMES
              1      18       19.21       500      610      700      900      950      970     1000      129      960     1100   
                                          VAR    BASINP    GEOM    SYMINP    ZMAT    AOBASIS   BASIS     P2S    ABASIS      S 
                                         1400     1410     1200     1210     1080     1600     1650     1700   
                                           T        V       H0       H01     AOSYM     SMH    MOLCAS    OPER   

              2       4        0.48       700     1000      520     2100   
                                         GEOM     BASIS   MCVARS     RHF  

 PROGRAMS   *        TOTAL        HF       INT
 CPU TIMES  *         0.49      0.06      0.33
 REAL TIME  *         0.99 SEC
 DISK USED  *       177.60 MB      
 SF USED    *         0.01 MB      
 GA USED    *         0.00 MB       (max)       0.00 MB       (current)
 **********************************************************************************************************************************

1PROGRAM * MULTI (Direct Multiconfiguration SCF)       Authors: P.J. Knowles, H.-J. Werner (1984)     S.T. Elbert (1988)


 Number of closed-shell orbitals:   5 (   5   0 )
 Number of active  orbitals:       10 (   7   3 )
 Number of external orbitals:      54 (  36  18 )

 State symmetry 1

 Number of electrons:    12    Spin symmetry=Triplet   Space symmetry=1
 Number of states:        1
 Number of CSFs:      10374   (15120 determinants, 30240 intermediate states)

 Molecular orbitals read from record     2100.2  Type=RHF/CANONICAL (state 1.1)

 Wavefunction dump at record             2140.2

 Convergence thresholds  0.10E-01 (gradient)  0.10E-05 (energy)  0.10E-02 (step length)

 Number of orbital rotations:      521   (    35 Core/Active    180 Core/Virtual   0 Active/Active    306 Active/Virtual)
 Total number of variables:      15641


 ITER. MIC  NCI  NEG     ENERGY(VAR)     ENERGY(PROJ)   ENERGY CHANGE     GRAD(0)  GRAD(ORB)   GRAD(CI)     STEP       TIME

   1   70   26    0    -183.67167062    -183.80299981   -0.13132919    0.03290543 0.00026698 0.01576012  0.14D+01      0.33
   2   41   53    0    -183.80520219    -183.81380628   -0.00860409    0.05419993 0.00000186 0.00216102  0.42D+00      0.92
   3   36   48    0    -183.81449688    -183.81468170   -0.00018481    0.01159831 0.00000004 0.00011821  0.59D-01      1.44
   4   28   36    0    -183.81468352    -183.81468364   -0.00000012    0.00024974 0.00000051 0.00000873  0.16D-02      1.79
   5   25   23    0    -183.81468364    -183.81468364   -0.00000000    0.00000231 0.00000005 0.00000049  0.40D-05      2.01

 ** WVFN ****  CONVERGENCE REACHED, FINAL GRADIENT:  0.20D-06


 First order charge density matrix for state 1.1 saved on record  2140.2 (density set 1)

 Results for state 1.1
 =====================

 !MCSCF STATE 1.1 Energy             -183.814683638446
 Nuclear energy                        51.82298786
 Kinetic energy                       183.96516303
 One electron energy                 -353.71410811
 Two electron energy                  118.07643661
 Virial ratio                           1.99918202

 !MCSCF STATE 1.1 Dipole moment        -0.11588679    -0.06907150     0.00000000
 Dipole moment /Debye                  -0.29453555    -0.17555075     0.00000000


 Natural orbital dump at molpro section  2140.2    (Orbital set 2)



 **********************************************************************************************************************************
 DATASETS  * FILE   NREC   LENGTH (MB)   RECORD NAMES
              1      19       22.92       500      610      700      900      950      970     1000      129      960     1100   
                                          VAR    BASINP    GEOM    SYMINP    ZMAT    AOBASIS   BASIS     P2S    ABASIS      S 
                                         1400     1410     1200     1210     1080     1600     1650     1700     1380   
                                           T        V       H0       H01     AOSYM     SMH    MOLCAS    OPER     JKOP   

              2       5        0.69       700     1000      520     2100     2140   
                                         GEOM     BASIS   MCVARS     RHF     MCSCF   

 PROGRAMS   *        TOTAL     MULTI        HF       INT
 CPU TIMES  *         2.67      2.18      0.06      0.33
 REAL TIME  *         3.65 SEC
 DISK USED  *       177.60 MB      
 SF USED    *        24.77 MB      
 GA USED    *         0.00 MB       (max)       0.00 MB       (current)
 **********************************************************************************************************************************

1PROGRAM * RS2 (Multireference RS Perturbation Theory)     Authors: H.-J. Werner (1993), P. Celani (1998)


 Level shift= 0.25

 Convergence thresholds:  THRVAR = 1.00D-10  THRDEN = 1.00D-08

 Number of optimized states:  1  Roots:   1
 Number of reference states:  1  Roots:   1

 Reference symmetry:                   1   Triplet 
 Number of electrons:                 22
 Maximum number of shells:             6
 Maximum number of spin couplings:   297

 Reference space:     3283 conf    10374 CSFs
 N elec internal:    24345 conf   101970 CSFs
 N-1 el internal:    36037 conf   292275 CSFs
 N-2 el internal:    35292 conf   548774 CSFs

 Number of electrons in valence space:                     16
 Maximum number of open shell orbitals in reference space:  8
 Maximum number of open shell orbitals in internal spaces: 12


 Number of core orbitals:           3 (   3   0 )
 Number of closed-shell orbitals:   2 (   2   0 )
 Number of active  orbitals:       10 (   7   3 )
 Number of external orbitals:      54 (  36  18 )

 Molecular orbitals read from record     2140.2  Type=MCSCF/NATURAL (state 1.1)

 Coulomb and exchange operators available. No transformation done.

 Number of p-space configurations:  23

 Reference wavefunction optimized for reference space (refopt=1)

 State     Reference Energy 
   1        -183.81468364

 Number of blocks in overlap matrix:     4   Smallest eigenvalue:  0.16D-01
 Number of N-2 electron functions:     144
 Number of N-1 electron functions:  292275

 Number of internal configurations:                50982
 Number of singly external configurations:       7897302
 Number of doubly external configurations:        108216
 Total number of contracted configurations:      8056500
 Total number of uncontracted configurations:  417836877

 Weight factors for SA-density in H0:    1.000000

 FIMAX=  0.27D+00  FXMAX=  0.47D-07  DIAG=  F  F  NOREF=1  NOINT=0  IHPPD=2

 Nuclear energy:                      51.82298786
 Core energy:                       -173.21602838
 Zeroth-order valence energy:        -12.09917837
 Zeroth-order total energy:         -133.49221889
 First-order energy:                 -50.32246475

 Using uncontracted singles

 Diagonal Coupling coefficients finished.               Storage: 1766116 words, CPU-Time:      0.05 seconds.
 Energy denominators for pairs finished in 0 passes.    Storage: 1759081 words, CPU-time:      0.00 seconds.

 A level shift of 0.25 is applied.

  ITER. STATE  ROOT     SQ.NORM     CORR.ENERGY   TOTAL ENERGY   ENERGY CHANGE       DEN1      VAR(S)    VAR(P)      TIME
    1     1     1     1.03589991    -0.00897498  -183.82365862    -0.00897498    -0.29389794  0.36D-01  0.41D-01     8.38
    2     1     1     1.08114788    -0.32134579  -184.13602943    -0.31237081    -0.00267041  0.48D-03  0.15D-03    16.21
    3     1     1     1.08243599    -0.32370483  -184.13838847    -0.00235904    -0.00147737  0.17D-04  0.28D-05    23.91
    4     1     1     1.08270675    -0.32383119  -184.13851483    -0.00012635    -0.00004839  0.91D-06  0.13D-06    31.57
    5     1     1     1.08276126    -0.32384746  -184.13853110    -0.00001628    -0.00004366  0.72D-07  0.59D-08    39.26
    6     1     1     1.08276878    -0.32384951  -184.13853315    -0.00000205    -0.00000032  0.77D-08  0.39D-09    46.88
    7     1     1     1.08277140    -0.32385018  -184.13853382    -0.00000067    -0.00000210  0.11D-08  0.30D-10    54.55
    8     1     1     1.08277163    -0.32385024  -184.13853388    -0.00000006     0.00000014  0.17D-09  0.28D-11    62.23
    9     1     1     1.08277180    -0.32385028  -184.13853392    -0.00000004    -0.00000015  0.29D-10  0.33D-12    69.75
   10     1     1     1.08277180    -0.32385028  -184.13853392     0.00000000     0.00000003  0.55D-11  0.42D-13    77.33

 Energies without level shift correction:

   10     1     1     1.08277180    -0.30315733  -184.11784097

 Energy contributions for state 1.1:
 ===================================

            Energy contr.      SQ.Norm of FOWF
 Space I     -0.00537756          0.00248529
 Space S     -0.11958130          0.03894479
 Space P     -0.17819847          0.04134172


 =====================================
 Analysis of CPU times by interactions
 =====================================

       I      S      P

 I   1.7%
 S   9.2%  37.4%
 P   0.9%  38.7%   0.0%

 Initialization:   7.7%
 Other:            4.5%

 Total CPU:       77.3 seconds
 =====================================


 Initialize record     7000.1
 Now solve CP-CASPT2 equations

 A level shift of 0.25 is applied.

  ITER. STATE  ROOT     SQ.NORM     CORR.ENERGY   TOTAL ENERGY   ENERGY CHANGE       DEN1      VAR(S)    VAR(P)      TIME
    1     1     1     1.05400168    -0.01887799  -183.83356162    -0.01887799    -0.37857255  0.52D-01  0.53D-01    96.88
    2     1     1     1.11121792    -0.41774780  -184.23243144    -0.39886981    -0.00432289  0.70D-03  0.23D-03   104.76
    3     1     1     1.11329581    -0.42116338  -184.23584702    -0.00341558    -0.00209264  0.27D-04  0.41D-05   112.57
    4     1     1     1.11370061    -0.42135089  -184.23603453    -0.00018751    -0.00008855  0.14D-05  0.20D-06   120.36
    5     1     1     1.11378794    -0.42137669  -184.23606033    -0.00002580    -0.00006372  0.11D-06  0.88D-08   128.08
    6     1     1     1.11379993    -0.42137994  -184.23606358    -0.00000325    -0.00000141  0.12D-07  0.60D-09   135.76
    7     1     1     1.11380419    -0.42138102  -184.23606466    -0.00000109    -0.00000311  0.16D-08  0.44D-10   143.34
    8     1     1     1.11380459    -0.42138112  -184.23606476    -0.00000010     0.00000015  0.25D-09  0.42D-11   150.99
    9     1     1     1.11380487    -0.42138119  -184.23606483    -0.00000007    -0.00000022  0.43D-10  0.47D-12   158.62
   10     1     1     1.11380487    -0.42138119  -184.23606483     0.00000000     0.00000003  0.81D-11  0.61D-13   166.17

 Energies without level shift correction:

   10     1     1     1.11380487    -0.39292997  -184.20761361

 Energy contributions for state 1.1:
 ===================================

            Energy contr.      SQ.Norm of FOWF
 Space I     -0.00815521          0.00386561
 Space S     -0.16244754          0.05652925
 Space P     -0.22232722          0.05341001


 =====================================
 Analysis of CPU times by interactions
 =====================================

       I      S      P

 I   0.8%
 S   8.3%  34.9%
 P   0.4%  36.1%   0.0%

 Initialization:  52.8%
 Other:          -33.3%

 Total CPU:      166.2 seconds
 =====================================



 Reference coefficients greater than 0.0500000
 =============================================
 22222//00220           0.9532976
 22222//00202          -0.1266395
 22220//20220          -0.1102434
 2222///\02/\           0.0706064
 2222///\02\/          -0.0687928
 222/2\//0220           0.0648570
 2222/\//02/\           0.0599222



 RESULTS FOR STATE 1.1
 =====================

 Coefficient of reference function:   C(0) = 1.00000000 (fixed)   1.00000000 (relaxed)

 Energy contributions of configuration classes

 CLASS          SQ.NORM        ECORR1        ECORR2
 +++++++++++++++++++++++++++++++++++++++++++++++++++
 Internals    0.00386561   -0.00660752    0.27180288
 Singles      0.05652925   -0.13907432   -0.24851231
 Pairs        0.05341001   -0.19886137   -0.34714085
 Total        1.11380487   -0.34454321   -0.32385028
 +++++++++++++++++++++++++++++++++++++++++++++++++++


 Reference energy                    -183.81468364
 Nuclear energy                        51.82298786
 Kinetic energy                       184.21500224
 One electron energy                 -353.48355256
 Two electron energy                  117.52203078
 Virial quotient                       -0.99958490
 Correlation energy                    -0.32385028
 !RSPT2 STATE 1.1 Energy             -184.138533917902

 Properties without orbital relaxation:

 !RSPT2 STATE 1.1 Dipole moment        -0.12599046    -0.06661813     0.00000000
 Dipole moment /Debye                  -0.32021482    -0.16931532     0.00000000


 **********************************************************************************************************************************

1PROGRAM * MULTI (Direct Multiconfiguration SCF)       Authors: P.J. Knowles, H.-J. Werner (1984)     S.T. Elbert (1988)


 Number of closed-shell orbitals:   5 (   5   0 )
 Number of active  orbitals:       10 (   7   3 )
 Number of external orbitals:      54 (  36  18 )

 State symmetry 1

 Number of electrons:    12    Spin symmetry=Triplet   Space symmetry=1
 Number of states:        1
 Number of CSFs:      10374
 
 Maximum number of shells:             6
 Maximum number of spin couplings:   297

 Storage for configuration lists   23753, coupling coefficients1494454, address lists 248643

 Molecular orbitals read from record     2140.2  Type=MCSCF/NATURAL (state 1.1)

 Wavefunction dump at record             3140.4

 Convergence thresholds  0.10E-04 (gradient)  0.10E-07 (energy)  0.10E-02 (step length)

 Eigenvalues of redundancy matrix
   1- 10   -0.000000   -0.000000   -0.000000   -0.000000   -0.000000   -0.000000   -0.000000   -0.000000   -0.000000   -0.000000
  11- 20    0.000000    0.000000    0.000000    0.000000    0.000000    0.000000    0.000000    0.000000    0.000000    0.000000
  21- 24    0.000000    0.000000    0.000000    0.000000

 Number of orbital rotations:      521   (    35 Core/Active    180 Core/Virtual   0 Active/Active    306 Active/Virtual)
 Total number of variables:      10895


 ITER. MIC  NCI  NEG     ENERGY(VAR)     ENERGY(PROJ)   ENERGY CHANGE     GRAD(0)  GRAD(ORB)   GRAD(CI)     STEP       TIME

   1   25   20    0    -183.81468364    -183.81468364    0.00000000    0.00000020 0.00000000 0.00000020  0.00D+00      0.94

 Warning: orbitals not optimized!

 Solving MCSCF z-vector equations for state  1.1, requested accuracy=      0.10D-05
 Convergence reached in  19 iterations ( 19 expansion vectors), accuracy=  0.66D-06

 Properties including orbital relaxation:

 !RSPT2 dipole moments (ED):           -0.19860467    -0.07329494     0.00000000

 RSPT2 Gradient info saved on record         5200.1

 CPU-time for rhs:           30.67 sec
 CPU-time for cpmcscf:        2.81 sec
 CPU-time for densities:      0.00 sec


 **********************************************************************************************************************************
 DATASETS  * FILE   NREC   LENGTH (MB)   RECORD NAMES
              1      25      153.92       500      610      700      900      950      970     1000      129      960     1100   
                                          VAR    BASINP    GEOM    SYMINP    ZMAT    AOBASIS   BASIS     P2S    ABASIS      S 
                                         1400     1410     1200     1210     1080     1600     1650     1700     1380     7000   
                                           T        V       H0       H01     AOSYM     SMH    MOLCAS    OPER     JKOP   
                                         7001     5200     5210     7009     7005   
                                                 RS2GRAD  RS2GRAD    

              2       5        0.69       700     1000      520     2100     2140   
                                         GEOM     BASIS   MCVARS     RHF     MCSCF   

 PROGRAMS   *        TOTAL       RS2     MULTI        HF       INT
 CPU TIMES  *       226.40    223.73      2.18      0.06      0.33
 REAL TIME  *       233.38 SEC
 DISK USED  *       177.60 MB      
 SF USED    *       609.26 MB      
 GA USED    *         0.00 MB       (max)       0.00 MB       (current)
 **********************************************************************************************************************************


 PROGRAM * HESSIAN

 Computing numerical hessian using default procedure for command RS2

 Symmetry elements for unique displacements: Z  

 Using no symmetry in wavefunction calculations

 Running default procedure: MULTI000  RS2
 

 Recomputing wavefunction at reference geometry


 Recomputing integrals since symmetry changed


 Using spherical harmonics

 Library entry N      S aug-cc-pVDZ          selected for orbital group  1
 Library entry N      P aug-cc-pVDZ          selected for orbital group  1
 Library entry N      D aug-cc-pVDZ          selected for orbital group  1
 Library entry O      S aug-cc-pVDZ          selected for orbital group  2
 Library entry O      P aug-cc-pVDZ          selected for orbital group  2
 Library entry O      D aug-cc-pVDZ          selected for orbital group  2

1PROGRAM * SEWARD (Integral evaluation for generally contracted gaussian basis sets)     Author: Roland Lindh, 1990

 Geometry written to block  1 of record 701


 Point group  C1  



 ATOMIC COORDINATES

 NR  ATOM    CHARGE       X              Y              Z

   1  N       7.00   -0.494675977   -0.540501335    0.000000000
   2  N       7.00   -2.446832666    0.330398754    0.000000000
   3  O       8.00    2.575206047    0.183938755    0.000000000

 Bond lengths in Bohr (Angstrom)

 1-2  2.137611448  1-3  3.154201815
     ( 1.131175264)     ( 1.669131719)

 Bond angles

  2-1-3  142.67938169

 NUCLEAR CHARGE:                   22
 NUMBER OF PRIMITIVE AOS:         111
 NUMBER OF SYMMETRY AOS:          105
 NUMBER OF CONTRACTIONS:           69   (  69A   )
 NUMBER OF CORE ORBITALS:           3   (   3A   )
 NUMBER OF VALENCE ORBITALS:       12   (  12A   )

 SYMMETRY CHANGED: INITIALIZING OCCUPATION


 NUCLEAR REPULSION ENERGY   51.82298786

 EXTRA SYMMETRY OF AOS IN SYMMETRY 1:   1 1 1 1 1 1 2 1 1 2   1 1 2 1 1 2 1 2 1 1   2 1 2 1 1 1 1 1 1 2   1 1 2 1 1 2 1 1 2 1
                                        2 1 1 2 1 2 1 1 1 1   1 1 2 1 1 2 1 1 2 1   1 2 1 2 1 1 2 1 2

 Eigenvalues of metric

         1 0.133E-03 0.570E-03 0.265E-02 0.465E-02 0.104E-01 0.106E-01 0.184E-01 0.325E-01


 Contracted 2-electron integrals neglected if value below      1.0D-11
 AO integral compression algorithm  1   Integral accuracy      1.0D-11

     10.224 MB (compressed) written to integral file ( 33.6%)

     Node minimum: 1.311 MB, node maximum: 1.573 MB


 NUMBER OF SORTED TWO-ELECTRON INTEGRALS:     417795.     BUFFER LENGTH:  32768
 NUMBER OF SEGMENTS:   1  SEGMENT LENGTH:     417795      RECORD LENGTH: 524288

 Memory used in sort:       0.97 MW

 SORT1 READ     4039007. AND WROTE      205388. INTEGRALS IN      1 RECORDS. CPU TIME:     0.03 SEC, REAL TIME:     0.04 SEC
 SORT2 READ     1453812. AND WROTE     2917320. INTEGRALS IN     35 RECORDS. CPU TIME:     0.01 SEC, REAL TIME:     0.01 SEC

 Node minimum:      415725.  Node maximum:      417795. integrals

 OPERATOR DM      FOR CENTER  0  COORDINATES:    0.000000    0.000000    0.000000
1PROGRAM * MULTI (Direct Multiconfiguration SCF)       Authors: P.J. Knowles, H.-J. Werner (1984)     S.T. Elbert (1988)



 Number of closed-shell orbitals:   5 (   5 )
 Number of active  orbitals:       10 (  10 )
 Number of external orbitals:      75 (  54 )

 State symmetry 1

 Number of electrons:    12    Spin symmetry=Triplet   Space symmetry=1
 Number of states:        1
 Number of CSFs:      20790   (30240 determinants, 30240 intermediate states)

 Molecular orbitals read from record     2140.2  Type=MCSCF/NATURAL (state 1.1)
 
 Present basis size:      69
 Previous basis size:     48  21
 Previous occupation:     12   3
 Previous closed-shells:   5   0
 Present occupation:      15
 Present closed-shells:    5
 Wavefunction symmetry:    1   Triplet 

 Orbital overlap <old|new>:  < 1.1| 1.1> = 1.000000   < 2.1| 2.1> = 1.000000   < 3.1| 3.1> = 1.000000   < 4.1| 4.1> = 1.000000
                             < 5.1| 5.1> = 1.000000   < 6.1| 6.1> = 1.000000   < 7.1| 7.1> = 1.000000   < 8.1| 8.1> = 1.000000
                             < 9.1| 9.1> = 1.000000   <10.1|10.1> = 1.000000   <11.1|11.1> = 1.000000   <12.1|12.1> = 1.000000
                             < 1.2|13.1> = 1.000000   < 2.2|14.1> = 1.000000   < 3.2|15.1> = 1.000000

 Wavefunction dump at record             2141.2

 Convergence thresholds  0.10E-04 (gradient)  0.10E-07 (energy)  0.10E-02 (step length)

 Number of orbital rotations:      860   (    50 Core/Active    270 Core/Virtual   0 Active/Active    540 Active/Virtual)
 Total number of variables:      31100


 ITER. MIC  NCI  NEG     ENERGY(VAR)     ENERGY(PROJ)   ENERGY CHANGE     GRAD(0)  GRAD(ORB)   GRAD(CI)     STEP       TIME

   1   51   22    0    -183.81468364    -183.81468364   -0.00000000    0.00000021 0.00000001 0.00000012  0.32D-06      0.60

 ** WVFN ****  CONVERGENCE REACHED, FINAL GRADIENT:  0.25D-07


 First order charge density matrix for state 1.1 saved on record  2141.2 (density set 1)

 Results for state 1.1
 =====================

 !MCSCF STATE 1.1 Energy             -183.814683638478
 Nuclear energy                        51.82298786
 Kinetic energy                       183.96516310
 One electron energy                 -353.71410816
 Two electron energy                  118.07643666
 Virial ratio                           1.99918202

 !MCSCF STATE 1.1 Dipole moment        -0.11588664    -0.06907152    -0.00000000
 Dipole moment /Debye                  -0.29453517    -0.17555079    -0.00000000


 Natural orbital dump at molpro section  2141.2    (Orbital set 2)



 **********************************************************************************************************************************
 DATASETS  * FILE   NREC   LENGTH (MB)   RECORD NAMES
              1      20       26.47       500      610      700      701      900      950      970     1001      129      960   
                                          VAR    BASINP    GEOM     GEOM    SYMINP    ZMAT    AOBASIS   BASIS     P2S    ABASIS    
                                         1100     1400     1410     1200     1210     1080     1600     1650     1700     1380   
                                           S        T        V       H0       H01     AOSYM     SMH    MOLCAS    OPER     JKOP   

              2       8        1.16       700     1000      520     2100     2140      701     1001     2141   
                                         GEOM     BASIS   MCVARS     RHF     MCSCF    GEOM     BASIS    MCSCF   

 PROGRAMS   *        TOTAL     MULTI       RS2     MULTI        HF       INT
 CPU TIMES  *       227.62      1.22    223.73      2.18      0.06      0.33
 REAL TIME  *       234.83 SEC
 DISK USED  *         1.12 GB      
 SF USED    *       609.26 MB      
 GA USED    *         0.00 MB       (max)       0.00 MB       (current)
 **********************************************************************************************************************************

1PROGRAM * RS2 (Multireference RS Perturbation Theory)     Authors: H.-J. Werner (1993), P. Celani (1998)


 Level shift= 0.25

 Convergence thresholds:  THRVAR = 1.00D-10  THRDEN = 1.00D-08

 Number of optimized states:  1  Roots:   1
 Number of reference states:  1  Roots:   1

 Reference symmetry:                   1   Triplet 
 Number of electrons:                 22
 Maximum number of shells:             6
 Maximum number of spin couplings:   297

 Reference space:     6555 conf    20790 CSFs
 N elec internal:    24345 conf   101970 CSFs
 N-1 el internal:    36100 conf   292380 CSFs
 N-2 el internal:    45318 conf   713004 CSFs

 Number of electrons in valence space:                     16
 Maximum number of open shell orbitals in reference space:  8
 Maximum number of open shell orbitals in internal spaces: 12


 Number of core orbitals:           3 (   3 )
 Number of closed-shell orbitals:   2 (   2 )
 Number of active  orbitals:       10 (  10 )
 Number of external orbitals:      54 (  54 )

 Molecular orbitals read from record     2141.2  Type=MCSCF/NATURAL (state 1.1)

 Coulomb and exchange operators available. No transformation done.

 Number of p-space configurations:  42

 Reference wavefunction optimized for reference space (refopt=1)

 State     Reference Energy 
   1        -183.81468364

 Number of blocks in overlap matrix:     2   Smallest eigenvalue:  0.16D-01
 Number of N-2 electron functions:     144
 Number of N-1 electron functions:  292380

 Number of internal configurations:               101970
 Number of singly external configurations:      15788520
 Number of doubly external configurations:        210276
 Total number of contracted configurations:     16100766
 Total number of uncontracted configurations: 1048608414

 Weight factors for SA-density in H0:    1.000000

 FIMAX=  0.27D+00  FXMAX=  0.48D-07  DIAG=  F  F  NOREF=1  NOINT=0  IHPPD=2

 Nuclear energy:                      51.82298786
 Core energy:                       -173.21602838
 Zeroth-order valence energy:        -12.09917835
 Zeroth-order total energy:         -133.49221887
 First-order energy:                 -50.32246477

 Using uncontracted singles

 Diagonal Coupling coefficients finished.               Storage: 1800442 words, CPU-Time:      0.38 seconds.
 Energy denominators for pairs finished in 0 passes.    Storage: 1781200 words, CPU-time:      0.00 seconds.

 A level shift of 0.25 is applied.

  ITER. STATE  ROOT     SQ.NORM     CORR.ENERGY   TOTAL ENERGY   ENERGY CHANGE       DEN1      VAR(S)    VAR(P)      TIME
    1     1     1     1.03589991    -0.00897498  -183.82365862    -0.00897498    -0.29389794  0.36D-01  0.41D-01    20.56
    2     1     1     1.08114788    -0.32134579  -184.13602943    -0.31237081    -0.00267041  0.48D-03  0.15D-03    36.17
    3     1     1     1.08243599    -0.32370483  -184.13838847    -0.00235904    -0.00147737  0.17D-04  0.28D-05    51.59
    4     1     1     1.08270675    -0.32383118  -184.13851482    -0.00012635    -0.00004839  0.91D-06  0.13D-06    66.88
    5     1     1     1.08276125    -0.32384746  -184.13853110    -0.00001628    -0.00004366  0.72D-07  0.59D-08    82.03
    6     1     1     1.08276877    -0.32384951  -184.13853315    -0.00000205    -0.00000032  0.77D-08  0.39D-09    97.12
    7     1     1     1.08277140    -0.32385018  -184.13853381    -0.00000067    -0.00000210  0.11D-08  0.30D-10   112.05
    8     1     1     1.08277163    -0.32385023  -184.13853387    -0.00000006     0.00000014  0.17D-09  0.28D-11   127.10
    9     1     1     1.08277180    -0.32385028  -184.13853391    -0.00000004    -0.00000015  0.29D-10  0.33D-12   142.03
   10     1     1     1.08277180    -0.32385028  -184.13853391     0.00000000     0.00000003  0.55D-11  0.42D-13   157.15

 Energies without level shift correction:

   10     1     1     1.08277180    -0.30315733  -184.11784096

 Energy contributions for state 1.1:
 ===================================

            Energy contr.      SQ.Norm of FOWF
 Space I     -0.00537756          0.00248529
 Space S     -0.11958129          0.03894479
 Space P     -0.17819847          0.04134172


 =====================================
 Analysis of CPU times by interactions
 =====================================

       I      S      P

 I   2.1%
 S  10.3%  25.5%
 P   1.3%  46.0%   0.4%

 Initialization:   9.0%
 Other:            5.4%

 Total CPU:      157.2 seconds
 =====================================


 Initialize record     7000.1
 Now solve CP-CASPT2 equations

 A level shift of 0.25 is applied.

  ITER. STATE  ROOT     SQ.NORM     CORR.ENERGY   TOTAL ENERGY   ENERGY CHANGE       DEN1      VAR(S)    VAR(P)      TIME
    1     1     1     1.05400168    -0.01887799  -183.83356162    -0.01887799    -0.37857254  0.52D-01  0.53D-01   221.90
    2     1     1     1.11121792    -0.41774779  -184.23243143    -0.39886981    -0.00432288  0.70D-03  0.23D-03   237.50
    3     1     1     1.11329581    -0.42116337  -184.23584701    -0.00341558    -0.00209264  0.27D-04  0.41D-05   252.98
    4     1     1     1.11370060    -0.42135088  -184.23603452    -0.00018751    -0.00008855  0.14D-05  0.20D-06   268.29
    5     1     1     1.11378793    -0.42137668  -184.23606032    -0.00002580    -0.00006372  0.11D-06  0.88D-08   283.59
    6     1     1     1.11379993    -0.42137993  -184.23606357    -0.00000325    -0.00000141  0.12D-07  0.60D-09   298.78
    7     1     1     1.11380419    -0.42138102  -184.23606465    -0.00000109    -0.00000311  0.16D-08  0.44D-10   313.83
    8     1     1     1.11380459    -0.42138111  -184.23606475    -0.00000010     0.00000015  0.25D-09  0.42D-11   328.89
    9     1     1     1.11380487    -0.42138118  -184.23606482    -0.00000007    -0.00000022  0.43D-10  0.47D-12   343.75
   10     1     1     1.11380487    -0.42138118  -184.23606482     0.00000000     0.00000003  0.81D-11  0.61D-13   358.80

 Energies without level shift correction:

   10     1     1     1.11380487    -0.39292997  -184.20761360

 Energy contributions for state 1.1:
 ===================================

            Energy contr.      SQ.Norm of FOWF
 Space I     -0.00815521          0.00386561
 Space S     -0.16244753          0.05652925
 Space P     -0.22232722          0.05341001


 =====================================
 Analysis of CPU times by interactions
 =====================================

       I      S      P

 I   0.9%
 S   8.8%  22.4%
 P   0.6%  40.3%   0.4%

 Initialization:  55.8%
 Other:          -29.1%

 Total CPU:      358.8 seconds
 =====================================



 Reference coefficients greater than 0.0500000
 =============================================
 2222222//000           0.9532976
 2222220//020          -0.1266394
 2222202//200          -0.1102434
 22222/\///\0          -0.0836431
 2222/22\//00           0.0648570
 22222////\\0          -0.0591089
 22222/\//\/0           0.0586383



 RESULTS FOR STATE 1.1
 =====================

 Coefficient of reference function:   C(0) = 1.00000000 (fixed)   1.00000000 (relaxed)

 Energy contributions of configuration classes

 CLASS          SQ.NORM        ECORR1        ECORR2
 +++++++++++++++++++++++++++++++++++++++++++++++++++
 Internals    0.00386561   -0.00660753    0.27180288
 Singles      0.05652925   -0.13907431   -0.24851231
 Pairs        0.05341001   -0.19886137   -0.34714084
 Total        1.11380487   -0.34454321   -0.32385028
 +++++++++++++++++++++++++++++++++++++++++++++++++++


 Reference energy                    -183.81468364
 Nuclear energy                        51.82298786
 Kinetic energy                       184.21500214
 One electron energy                 -353.48355246
 Two electron energy                  117.52203068
 Virial quotient                       -0.99958490
 Correlation energy                    -0.32385028
 !RSPT2 STATE 1.1 Energy             -184.138533913805

 Properties without orbital relaxation:

 !RSPT2 STATE 1.1 Dipole moment        -0.12599024    -0.06661811     0.00000000
 Dipole moment /Debye                  -0.32021427    -0.16931526     0.00000000


 **********************************************************************************************************************************

1PROGRAM * MULTI (Direct Multiconfiguration SCF)       Authors: P.J. Knowles, H.-J. Werner (1984)     S.T. Elbert (1988)


 Number of closed-shell orbitals:   5 (   5 )
 Number of active  orbitals:       10 (  10 )
 Number of external orbitals:      75 (  54 )

 State symmetry 1

 Number of electrons:    12    Spin symmetry=Triplet   Space symmetry=1
 Number of states:        1
 Number of CSFs:      20790
 
 Maximum number of shells:             6
 Maximum number of spin couplings:   297

 Storage for configuration lists   23858, coupling coefficients1494454, address lists 319560

 Molecular orbitals read from record     2141.2  Type=MCSCF/NATURAL (state 1.1)

 Wavefunction dump at record             3140.4

 Convergence thresholds  0.10E-04 (gradient)  0.10E-07 (energy)  0.10E-02 (step length)

 Eigenvalues of redundancy matrix
   1- 10   -0.000000   -0.000000   -0.000000   -0.000000   -0.000000   -0.000000   -0.000000   -0.000000   -0.000000   -0.000000
  11- 20   -0.000000   -0.000000   -0.000000   -0.000000   -0.000000    0.000000    0.000000    0.000000    0.000000    0.000000
  21- 30    0.000000    0.000000    0.000000    0.000000    0.000000    0.000000    0.000000    0.000000    0.000000    0.000000
  31- 40    0.000000    0.000000    0.000000    0.000000    0.000000    0.000000    0.000000    0.000000    0.000000    0.000000
  41- 45    0.000000    0.000000    0.000000    0.000000    0.000000

 Number of orbital rotations:      860   (    50 Core/Active    270 Core/Virtual   0 Active/Active    540 Active/Virtual)
 Total number of variables:      21650


 ITER. MIC  NCI  NEG     ENERGY(VAR)     ENERGY(PROJ)   ENERGY CHANGE     GRAD(0)  GRAD(ORB)   GRAD(CI)     STEP       TIME

   1   51   20    0    -183.81468364    -183.81468364    0.00000000    0.00000002 0.00000000 0.00000020  0.00D+00      2.30

 Warning: orbitals not optimized!

 Solving MCSCF z-vector equations for state  1.1, requested accuracy=      0.10D-05
 Convergence reached in  19 iterations ( 19 expansion vectors), accuracy=  0.66D-06

 Properties including orbital relaxation:

 !RSPT2 dipole moments (ED):           -0.19860461    -0.07329494     0.00000000

 RSPT2 Gradient info saved on record         5200.1

 CPU-time for rhs:          123.04 sec
 CPU-time for cpmcscf:        8.27 sec
 CPU-time for densities:      0.00 sec


 **********************************************************************************************************************************
 DATASETS  * FILE   NREC   LENGTH (MB)   RECORD NAMES
              1      26      287.93       500      610      700      701      900      950      970     1001      129      960   
                                          VAR    BASINP    GEOM     GEOM    SYMINP    ZMAT    AOBASIS   BASIS     P2S    ABASIS    
                                         1100     1400     1410     1200     1210     1080     1600     1650     1700     1380   
                                           S        T        V       H0       H01     AOSYM     SMH    MOLCAS    OPER     JKOP   
                                         7000     7001     5200     5210     7009     7005   
                                                          RS2GRAD  RS2GRAD    

              2       8        1.16       700     1000      520     2100     2140      701     1001     2141   
                                         GEOM     BASIS   MCVARS     RHF     MCSCF    GEOM     BASIS    MCSCF   

 PROGRAMS   *        TOTAL       RS2       RS2     MULTI        HF       INT
 CPU TIMES  *       795.45    567.83    223.73      2.18      0.06      0.33
 REAL TIME  *       811.15 SEC
 DISK USED  *         1.12 GB      
 SF USED    *         1.21 GB      
 GA USED    *         0.00 MB       (max)       0.00 MB       (current)
 **********************************************************************************************************************************

 Numerically approximating hessian using central gradient differences
 Task   1   Incrementing variable GX1   by   0.010 AU
 Task   2   Incrementing variable GX1   by  -0.010 AU
 Task   3   Incrementing variable GY1   by   0.010 AU
 Task   4   Incrementing variable GY1   by  -0.010 AU
 Task   5   Incrementing variable GZ1   by   0.010 AU (Skipping negative increment due to symmetry).
 Task   6   Incrementing variable GX2   by   0.010 AU
 Task   7   Incrementing variable GX2   by  -0.010 AU
 Task   8   Incrementing variable GY2   by   0.010 AU
 Task   9   Incrementing variable GY2   by  -0.010 AU
 Task  10   Incrementing variable GZ2   by   0.010 AU (Skipping negative increment due to symmetry).
 Task  11   Incrementing variable GX3   by   0.010 AU
 Task  12   Incrementing variable GX3   by  -0.010 AU
 Task  13   Incrementing variable GY3   by   0.010 AU
 Task  14   Incrementing variable GY3   by  -0.010 AU
 Task  15   Incrementing variable GZ3   by   0.010 AU (Skipping negative increment due to symmetry).

 Task list generated. Total number of displacements:     15

 Starting task   1.  CPU=     0.00 sec, Elapsed=     0.00 sec
 Incrementing variable GX1              by  0.005292 ANG   to   -0.256479 ANG


 Recomputing integrals since geometry changed

1PROGRAM * SEWARD (Integral evaluation for generally contracted gaussian basis sets)     Author: Roland Lindh, 1990

 Geometry written to block  1 of record 701


 Point group  C1  



 ATOMIC COORDINATES

 NR  ATOM    CHARGE       X              Y              Z

   1  N       7.00   -0.484675977   -0.540501335    0.000000000
   2  N       7.00   -2.446832666    0.330398754    0.000000000
   3  O       8.00    2.575206047    0.183938755    0.000000000

 Bond lengths in Bohr (Angstrom)

 1-2  2.146747734  1-3  3.144469979
     ( 1.136009979)     ( 1.663981853)

 Bond angles

  2-1-3  142.74627041

 NUCLEAR CHARGE:                   22
 NUMBER OF PRIMITIVE AOS:         111
 NUMBER OF SYMMETRY AOS:          105
 NUMBER OF CONTRACTIONS:           69   (  69A   )
 NUMBER OF CORE ORBITALS:           3   (   3A   )
 NUMBER OF VALENCE ORBITALS:       12   (  12A   )


 NUCLEAR REPULSION ENERGY   51.78037864

 EXTRA SYMMETRY OF AOS IN SYMMETRY 1:   1 1 1 1 1 1 2 1 1 2   1 1 2 1 1 2 1 2 1 1   2 1 2 1 1 1 1 1 1 2   1 1 2 1 1 2 1 1 2 1
                                        2 1 1 2 1 2 1 1 1 1   1 1 2 1 1 2 1 1 2 1   1 2 1 2 1 1 2 1 2

 Eigenvalues of metric

         1 0.135E-03 0.577E-03 0.263E-02 0.465E-02 0.106E-01 0.108E-01 0.185E-01 0.326E-01


 Contracted 2-electron integrals neglected if value below      1.0D-11
 AO integral compression algorithm  1   Integral accuracy      1.0D-11

     10.224 MB (compressed) written to integral file ( 33.6%)

     Node minimum: 1.311 MB, node maximum: 1.573 MB


 NUMBER OF SORTED TWO-ELECTRON INTEGRALS:     417795.     BUFFER LENGTH:  32768
 NUMBER OF SEGMENTS:   1  SEGMENT LENGTH:     417795      RECORD LENGTH: 524288

 Memory used in sort:       0.97 MW

 SORT1 READ     4039007. AND WROTE      205388. INTEGRALS IN      1 RECORDS. CPU TIME:     0.04 SEC, REAL TIME:     0.04 SEC
 SORT2 READ     1453809. AND WROTE     2917320. INTEGRALS IN     42 RECORDS. CPU TIME:     0.01 SEC, REAL TIME:     0.02 SEC

 Node minimum:      415725.  Node maximum:      417795. integrals

 OPERATOR DM      FOR CENTER  0  COORDINATES:    0.000000    0.000000    0.000000
1PROGRAM * MULTI (Direct Multiconfiguration SCF)       Authors: P.J. Knowles, H.-J. Werner (1984)     S.T. Elbert (1988)



 Number of closed-shell orbitals:   5 (   5 )
 Number of active  orbitals:       10 (  10 )
 Number of external orbitals:      75 (  54 )

 State symmetry 1

 Number of electrons:    12    Spin symmetry=Triplet   Space symmetry=1
 Number of states:        1
 Number of CSFs:      20790   (30240 determinants, 30240 intermediate states)

 Molecular orbitals read from record     2140.2  Type=MCSCF/NATURAL (state 1.1)
 
 Present basis size:      69
 Previous basis size:     48  21
 Previous occupation:     12   3
 Previous closed-shells:   5   0
 Present occupation:      15
 Present closed-shells:    5
 Wavefunction symmetry:    1   Triplet 

 Orbital overlap <old|new>:  < 1.1| 1.1> = 1.000000   < 2.1| 2.1> = 0.999410   < 3.1| 3.1> = 0.999994   < 4.1| 4.1> = 1.000000
                             < 5.1| 5.1> = 1.000000   < 6.1| 6.1> = 0.999958   < 7.1| 7.1> = 0.999993   < 8.1| 8.1> = 0.999996
                             < 9.1| 9.1> = 0.999994   <10.1|10.1> = 1.000000   <11.1|11.1> = 0.999991   <12.1|12.1> = 0.999962
                             < 1.2|13.1> = 1.000000   < 2.2|14.1> = 0.999997   < 3.2|15.1> = 0.999993

 Wavefunction dump at record             2140.1

 Convergence thresholds  0.10E-04 (gradient)  0.10E-07 (energy)  0.10E-02 (step length)

 Number of orbital rotations:      860   (    50 Core/Active    270 Core/Virtual   0 Active/Active    540 Active/Virtual)
 Total number of variables:      31100


 ITER. MIC  NCI  NEG     ENERGY(VAR)     ENERGY(PROJ)   ENERGY CHANGE     GRAD(0)  GRAD(ORB)   GRAD(CI)     STEP       TIME

   1   51   36    0    -183.80529879    -183.81340280   -0.00810401    0.49882451 0.00002540 0.00015555  0.21D-01      1.10
   2   34   37    0    -183.81340345    -183.81340347   -0.00000001    0.00019424 0.00000001 0.00000025  0.17D-03      2.27
   3   32   14    0    -183.81340347    -183.81340347    0.00000000    0.00000004 0.00000000 0.00000001  0.69D-07      2.76

 ** WVFN ****  CONVERGENCE REACHED, FINAL GRADIENT:  0.53D-08


 First order charge density matrix for state 1.1 saved on record  2140.1 (density set 1)

 Results for state 1.1
 =====================

 !MCSCF STATE 1.1 Energy             -183.813403468134
 Nuclear energy                        51.78037864
 Kinetic energy                       183.94051571
 One electron energy                 -353.62727584
 Two electron energy                  118.03349373
 Virial ratio                           1.99930895

 !MCSCF STATE 1.1 Dipole moment        -0.11369686    -0.06863051    -0.00000000
 Dipole moment /Debye                  -0.28896967    -0.17442992    -0.00000000


 Natural orbital dump at molpro section  2140.1    (Orbital set 2)



 **********************************************************************************************************************************
 DATASETS  * FILE   NREC   LENGTH (MB)   RECORD NAMES
              1      21       26.72       500      610      700      701      900      950      970     1001      129      960   
                                          VAR    BASINP    GEOM     GEOM    SYMINP    ZMAT    AOBASIS   BASIS     P2S    ABASIS    
                                         1100     1400     1410     1200     1210     1080     1600     1650     1700     2140   
                                           S        T        V       H0       H01     AOSYM     SMH    MOLCAS    OPER     MCSCF   
                                         1380   
                                         JKOP   

              2       9        1.19       700     1000      520     2100     2140      701     1001     2141     5500   
                                         GEOM     BASIS   MCVARS     RHF     MCSCF    GEOM     BASIS    MCSCF    HINFO   

 PROGRAMS   *        TOTAL     MULTI       RS2     MULTI        HF       INT
 CPU TIMES  *       798.83      3.38    223.73      2.18      0.06      0.33
 REAL TIME  *       815.03 SEC
 DISK USED  *         2.06 GB      
 SF USED    *         1.21 GB      
 GA USED    *         0.00 MB       (max)       0.00 MB       (current)
 **********************************************************************************************************************************

1PROGRAM * RS2 (Multireference RS Perturbation Theory)     Authors: H.-J. Werner (1993), P. Celani (1998)


 Level shift= 0.25

 Convergence thresholds:  THRVAR = 1.00D-10  THRDEN = 1.00D-08

 Number of optimized states:  1  Roots:   1
 Number of reference states:  1  Roots:   1

 Reference symmetry:                   1   Triplet 
 Number of electrons:                 22
 Maximum number of shells:             6
 Maximum number of spin couplings:   297

 Reference space:     6555 conf    20790 CSFs
 N elec internal:    24345 conf   101970 CSFs
 N-1 el internal:    36100 conf   292380 CSFs
 N-2 el internal:    45318 conf   713004 CSFs

 Number of electrons in valence space:                     16
 Maximum number of open shell orbitals in reference space:  8
 Maximum number of open shell orbitals in internal spaces: 12


 Number of core orbitals:           3 (   3 )
 Number of closed-shell orbitals:   2 (   2 )
 Number of active  orbitals:       10 (  10 )
 Number of external orbitals:      54 (  54 )

 Molecular orbitals read from record     2140.1  Type=MCSCF/NATURAL (state 1.1)

 Coulomb and exchange operators available. No transformation done.

 Number of p-space configurations:  45

 Reference wavefunction optimized for reference space (refopt=1)

 State     Reference Energy 
   1        -183.81340347

 Number of blocks in overlap matrix:     2   Smallest eigenvalue:  0.16D-01
 Number of N-2 electron functions:     144
 Number of N-1 electron functions:  292380

 Number of internal configurations:               101970
 Number of singly external configurations:      15788520
 Number of doubly external configurations:        210276
 Total number of contracted configurations:     16100766
 Total number of uncontracted configurations: 1048608414

 Weight factors for SA-density in H0:    1.000000

 FIMAX=  0.27D+00  FXMAX=  0.52D-07  DIAG=  F  F  NOREF=1  NOINT=0  IHPPD=2

 Nuclear energy:                      51.78037864
 Core energy:                       -173.19390620
 Zeroth-order valence energy:        -12.08824209
 Zeroth-order total energy:         -133.50176964
 First-order energy:                 -50.31163383

 Using uncontracted singles

 Diagonal Coupling coefficients finished.               Storage: 1801509 words, CPU-Time:      0.01 seconds.
 Energy denominators for pairs finished in 0 passes.    Storage: 1782267 words, CPU-time:      0.00 seconds.

 A level shift of 0.25 is applied.

  ITER. STATE  ROOT     SQ.NORM     CORR.ENERGY   TOTAL ENERGY   ENERGY CHANGE       DEN1      VAR(S)    VAR(P)      TIME
    1     1     1     1.03624073    -0.00906018  -183.82246365    -0.00906018    -0.29448082  0.36D-01  0.41D-01    20.10
    2     1     1     1.08144785    -0.32195134  -184.13535480    -0.31289115    -0.00259848  0.48D-03  0.15D-03    37.64
    3     1     1     1.08272969    -0.32430214  -184.13770561    -0.00235081    -0.00147605  0.17D-04  0.28D-05    55.05
    4     1     1     1.08299773    -0.32442722  -184.13783068    -0.00012507    -0.00004691  0.90D-06  0.13D-06    72.23
    5     1     1     1.08305184    -0.32444335  -184.13784682    -0.00001614    -0.00004330  0.71D-07  0.58D-08    89.28
    6     1     1     1.08305925    -0.32444537  -184.13784884    -0.00000202    -0.00000031  0.75D-08  0.38D-09   106.22
    7     1     1     1.08306184    -0.32444603  -184.13784950    -0.00000066    -0.00000207  0.10D-08  0.28D-10   123.15
    8     1     1     1.08306208    -0.32444608  -184.13784955    -0.00000006     0.00000013  0.16D-09  0.27D-11   140.06
    9     1     1     1.08306224    -0.32444613  -184.13784959    -0.00000004    -0.00000015  0.27D-10  0.30D-12   156.85
   10     1     1     1.08306224    -0.32444613  -184.13784959     0.00000000     0.00000003  0.50D-11  0.39D-13   173.65

 Energies without level shift correction:

   10     1     1     1.08306224    -0.30368056  -184.11708403

 Energy contributions for state 1.1:
 ===================================

            Energy contr.      SQ.Norm of FOWF
 Space I     -0.00541209          0.00250894
 Space S     -0.12020008          0.03923742
 Space P     -0.17806839          0.04131588


 =====================================
 Analysis of CPU times by interactions
 =====================================

       I      S      P

 I   1.9%
 S   9.4%  31.6%
 P   1.2%  41.8%   0.8%

 Initialization:   7.9%
 Other:            5.4%

 Total CPU:      173.6 seconds
 =====================================


 Initialize record     7000.1
 Now solve CP-CASPT2 equations

 A level shift of 0.25 is applied.

  ITER. STATE  ROOT     SQ.NORM     CORR.ENERGY   TOTAL ENERGY   ENERGY CHANGE       DEN1      VAR(S)    VAR(P)      TIME
    1     1     1     1.05457436    -0.01905568  -183.83245915    -0.01905568    -0.37949379  0.52D-01  0.53D-01   238.95
    2     1     1     1.11172344    -0.41873802  -184.23214149    -0.39968235    -0.00422607  0.71D-03  0.23D-03   256.57
    3     1     1     1.11379638    -0.42214643  -184.23554990    -0.00340841    -0.00209372  0.27D-04  0.41D-05   273.92
    4     1     1     1.11419741    -0.42233227  -184.23573574    -0.00018584    -0.00008634  0.14D-05  0.20D-06   291.10
    5     1     1     1.11428431    -0.42235790  -184.23576137    -0.00002564    -0.00006332  0.11D-06  0.86D-08   308.22
    6     1     1     1.11429614    -0.42236111  -184.23576458    -0.00000320    -0.00000137  0.11D-07  0.59D-09   325.38
    7     1     1     1.11430036    -0.42236218  -184.23576565    -0.00000108    -0.00000307  0.15D-08  0.42D-10   342.41
    8     1     1     1.11430076    -0.42236228  -184.23576575    -0.00000010     0.00000014  0.23D-09  0.40D-11   359.36
    9     1     1     1.11430103    -0.42236235  -184.23576582    -0.00000007    -0.00000022  0.40D-10  0.44D-12   376.30
   10     1     1     1.11430103    -0.42236235  -184.23576582     0.00000000     0.00000003  0.74D-11  0.56D-13   393.12

 Energies without level shift correction:

   10     1     1     1.11430103    -0.39378709  -184.20719056

 Energy contributions for state 1.1:
 ===================================

            Energy contr.      SQ.Norm of FOWF
 Space I     -0.00821732          0.00390741
 Space S     -0.16340140          0.05701550
 Space P     -0.22216837          0.05337812


 =====================================
 Analysis of CPU times by interactions
 =====================================

       I      S      P

 I   0.8%
 S   8.1%  28.0%
 P   0.5%  36.9%   0.8%

 Initialization:  55.2%
 Other:          -30.4%

 Total CPU:      393.1 seconds
 =====================================



 Reference coefficients greater than 0.0500000
 =============================================
 2222222//000           0.9523334
 2222220//020          -0.1275593
 2222202//200          -0.1102474
 22222/\///\0          -0.0837941
 2222/22\//00           0.0661002
 22222////\\0          -0.0588376
 22222/\//\/0           0.0586847



 RESULTS FOR STATE 1.1
 =====================

 Coefficient of reference function:   C(0) = 1.00000000 (fixed)   1.00000000 (relaxed)

 Energy contributions of configuration classes

 CLASS          SQ.NORM        ECORR1        ECORR2
 +++++++++++++++++++++++++++++++++++++++++++++++++++
 Internals    0.00390741   -0.00665391    0.27217163
 Singles      0.05701550   -0.13984087   -0.24984512
 Pairs        0.05337812   -0.19871688   -0.34677264
 Total        1.11430103   -0.34521167   -0.32444613
 +++++++++++++++++++++++++++++++++++++++++++++++++++


 Reference energy                    -183.81340347
 Nuclear energy                        51.78037864
 Kinetic energy                       184.19109084
 One electron energy                 -353.39666227
 Two electron energy                  117.47843403
 Virial quotient                       -0.99971095
 Correlation energy                    -0.32444613
 !RSPT2 STATE 1.1 Energy             -184.137849593624

 Properties without orbital relaxation:

 !RSPT2 STATE 1.1 Dipole moment        -0.12384166    -0.06609803    -0.00000000
 Dipole moment /Debye                  -0.31475350    -0.16799343    -0.00000000


 **********************************************************************************************************************************

1PROGRAM * MULTI (Direct Multiconfiguration SCF)       Authors: P.J. Knowles, H.-J. Werner (1984)     S.T. Elbert (1988)


 Number of closed-shell orbitals:   5 (   5 )
 Number of active  orbitals:       10 (  10 )
 Number of external orbitals:      75 (  54 )

 State symmetry 1

 Number of electrons:    12    Spin symmetry=Triplet   Space symmetry=1
 Number of states:        1
 Number of CSFs:      20790
 
 Maximum number of shells:             6
 Maximum number of spin couplings:   297

 Storage for configuration lists   23858, coupling coefficients1494454, address lists 319560

 Molecular orbitals read from record     2140.1  Type=MCSCF/NATURAL (state 1.1)

 Wavefunction dump at record             3140.1

 Convergence thresholds  0.10E-04 (gradient)  0.10E-07 (energy)  0.10E-02 (step length)

 Eigenvalues of redundancy matrix
   1- 10   -0.000000   -0.000000   -0.000000   -0.000000   -0.000000   -0.000000   -0.000000   -0.000000   -0.000000   -0.000000
  11- 20   -0.000000   -0.000000   -0.000000   -0.000000   -0.000000    0.000000    0.000000    0.000000    0.000000    0.000000
  21- 30    0.000000    0.000000    0.000000    0.000000    0.000000    0.000000    0.000000    0.000000    0.000000    0.000000
  31- 40    0.000000    0.000000    0.000000    0.000000    0.000000    0.000000    0.000000    0.000000    0.000000    0.000000
  41- 45    0.000000    0.000000    0.000000    0.000000    0.000000

 Number of orbital rotations:      860   (    50 Core/Active    270 Core/Virtual   0 Active/Active    540 Active/Virtual)
 Total number of variables:      21650


 ITER. MIC  NCI  NEG     ENERGY(VAR)     ENERGY(PROJ)   ENERGY CHANGE     GRAD(0)  GRAD(ORB)   GRAD(CI)     STEP       TIME

   1   32   21    0    -183.81340347    -183.81340347    0.00000000    0.00000001 0.00000000 0.00000010  0.00D+00      2.37

 Warning: orbitals not optimized!

 Solving MCSCF z-vector equations for state  1.1, requested accuracy=      0.10D-05
 Convergence reached in  19 iterations ( 19 expansion vectors), accuracy=  0.71D-06

 Properties including orbital relaxation:

 !RSPT2 dipole moments (ED):           -0.19478222    -0.07234504    -0.00000000

 RSPT2 Gradient info saved on record         5200.1

 CPU-time for rhs:          122.87 sec
 CPU-time for cpmcscf:        7.85 sec
 CPU-time for densities:      0.00 sec


 **********************************************************************************************************************************
 DATASETS  * FILE   NREC   LENGTH (MB)   RECORD NAMES
              1      28      288.42       500      610      700      701      900      950      970     1001      129      960   
                                          VAR    BASINP    GEOM     GEOM    SYMINP    ZMAT    AOBASIS   BASIS     P2S    ABASIS    
                                         1100     1400     1410     1200     1210     1080     1600     1650     1700     2140   
                                           S        T        V       H0       H01     AOSYM     SMH    MOLCAS    OPER     MCSCF   
                                         1380     7000     7001     5200     5210     3140     7009     7005   
                                         JKOP                      RS2GRAD  RS2GRAD   MCSCF   

              2       9        1.19       700     1000      520     2100     2140      701     1001     2141     5500   
                                         GEOM     BASIS   MCVARS     RHF     MCSCF    GEOM     BASIS    MCSCF    HINFO   

 PROGRAMS   *        TOTAL       RS2       RS2     MULTI        HF       INT
 CPU TIMES  *      1401.11    602.28    223.73      2.18      0.06      0.33
 REAL TIME  *      1425.33 SEC
 DISK USED  *         2.06 GB      
 SF USED    *         1.21 GB      
 GA USED    *         0.00 MB       (max)       0.00 MB       (current)
 **********************************************************************************************************************************
1PROGRAM * ALASKA (Gradient of the energy)     Author: R. Lindh


 RSPT2 Gradient info restored from record    5200.1

 Number of core orbitals:           3 (   3 )
 Number of closed-shell orbitals:   2 (   2 )
 Number of active  orbitals:       10 (  10 )
 Number of external orbitals:      54 (  54 )

 Integral thresholds in T2TRAN:            1.0D-10 (PROD)

 Available memory for Transformation: 997824605 words
 Memory needed for incore algorithm:     778533 words
 Minimum memory needed:                  291669 words

 Memory used for transformation:           0.78 MW
 Available memory for gradients:         999.05 MW

 CPU for transformation:                   0.04 sec
 CPU for integrals and gradient:           1.24 sec
 Total CPU:                                1.33 sec

 Prescreening statistics:
 ========================

 Total number of shell quadruplets:        3.00D+00
 Number of shell quadruplets processed:    3.00D+00 (100.00%)

 RSPT2 GRADIENT FOR STATE 1.1

 Atom          dE/dx               dE/dy               dE/dz

   1         0.072740962         0.035514977         0.000000000
   2        -0.009841896        -0.010858850        -0.000000000
   3        -0.062899066        -0.024656127         0.000000000

 Nuclear force contribution to virial =        -0.200471241
 Starting task   2.  CPU=   617.61 sec, Elapsed=   617.51 sec
 Incrementing variable GX1              by -0.005292 ANG   to   -0.267063 ANG


 Recomputing integrals since geometry changed

1PROGRAM * SEWARD (Integral evaluation for generally contracted gaussian basis sets)     Author: Roland Lindh, 1990

 Geometry written to block  1 of record 701


 Point group  C1  



 ATOMIC COORDINATES

 NR  ATOM    CHARGE       X              Y              Z

   1  N       7.00   -0.504675977   -0.540501335    0.000000000
   2  N       7.00   -2.446832666    0.330398754    0.000000000
   3  O       8.00    2.575206047    0.183938755    0.000000000

 Bond lengths in Bohr (Angstrom)

 1-2  2.128482926  1-3  3.163935323
     ( 1.126344658)     ( 1.674282470)

 Bond angles

  2-1-3  142.61130240

 NUCLEAR CHARGE:                   22
 NUMBER OF PRIMITIVE AOS:         111
 NUMBER OF SYMMETRY AOS:          105
 NUMBER OF CONTRACTIONS:           69   (  69A   )
 NUMBER OF CORE ORBITALS:           3   (   3A   )
 NUMBER OF VALENCE ORBITALS:       12   (  12A   )


 NUCLEAR REPULSION ENERGY   51.86667926

 EXTRA SYMMETRY OF AOS IN SYMMETRY 1:   1 1 1 1 1 1 2 1 1 2   1 1 2 1 1 2 1 2 1 1   2 1 2 1 1 1 1 1 1 2   1 1 2 1 1 2 1 1 2 1
                                        2 1 1 2 1 2 1 1 1 1   1 1 2 1 1 2 1 1 2 1   1 2 1 2 1 1 2 1 2

 Eigenvalues of metric

         1 0.131E-03 0.563E-03 0.268E-02 0.465E-02 0.101E-01 0.105E-01 0.182E-01 0.324E-01


 Contracted 2-electron integrals neglected if value below      1.0D-11
 AO integral compression algorithm  1   Integral accuracy      1.0D-11

     10.486 MB (compressed) written to integral file ( 32.8%)

     Node minimum: 1.311 MB, node maximum: 1.573 MB


 NUMBER OF SORTED TWO-ELECTRON INTEGRALS:     417795.     BUFFER LENGTH:  32768
 NUMBER OF SEGMENTS:   1  SEGMENT LENGTH:     417795      RECORD LENGTH: 524288

 Memory used in sort:       0.97 MW

 SORT1 READ     4039007. AND WROTE      205388. INTEGRALS IN      1 RECORDS. CPU TIME:     0.03 SEC, REAL TIME:     0.04 SEC
 SORT2 READ     1453813. AND WROTE     2917320. INTEGRALS IN     42 RECORDS. CPU TIME:     0.01 SEC, REAL TIME:     0.02 SEC

 Node minimum:      415725.  Node maximum:      417795. integrals

 OPERATOR DM      FOR CENTER  0  COORDINATES:    0.000000    0.000000    0.000000
1PROGRAM * MULTI (Direct Multiconfiguration SCF)       Authors: P.J. Knowles, H.-J. Werner (1984)     S.T. Elbert (1988)



 Number of closed-shell orbitals:   5 (   5 )
 Number of active  orbitals:       10 (  10 )
 Number of external orbitals:      75 (  54 )

 State symmetry 1

 Number of electrons:    12    Spin symmetry=Triplet   Space symmetry=1
 Number of states:        1
 Number of CSFs:      20790   (30240 determinants, 30240 intermediate states)

 Molecular orbitals read from record     2140.2  Type=MCSCF/NATURAL (state 1.1)
 
 Present basis size:      69
 Previous basis size:     48  21
 Previous occupation:     12   3
 Previous closed-shells:   5   0
 Present occupation:      15
 Present closed-shells:    5
 Wavefunction symmetry:    1   Triplet 

 Orbital overlap <old|new>:  < 1.1| 1.1> = 1.000000   < 2.1| 2.1> = 0.999410   < 3.1| 3.1> = 0.999994   < 4.1| 4.1> = 1.000000
                             < 5.1| 5.1> = 1.000000   < 6.1| 6.1> = 0.999958   < 7.1| 7.1> = 0.999992   < 8.1| 8.1> = 0.999996
                             < 9.1| 9.1> = 0.999994   <10.1|10.1> = 1.000000   <11.1|11.1> = 0.999991   <12.1|12.1> = 0.999964
                             < 1.2|13.1> = 1.000000   < 2.2|14.1> = 0.999997   < 3.2|15.1> = 0.999993

 Wavefunction dump at record             2140.1

 Convergence thresholds  0.10E-04 (gradient)  0.10E-07 (energy)  0.10E-02 (step length)

 Number of orbital rotations:      860   (    50 Core/Active    270 Core/Virtual   0 Active/Active    540 Active/Virtual)
 Total number of variables:      31100


 ITER. MIC  NCI  NEG     ENERGY(VAR)     ENERGY(PROJ)   ENERGY CHANGE     GRAD(0)  GRAD(ORB)   GRAD(CI)     STEP       TIME

   1   64   38    0    -183.80765815    -183.81587849   -0.00822033    0.50294984 0.00001849 0.00009708  0.41D-01      1.16
   2   40   42    0    -183.81586703    -183.81586960   -0.00000256    0.00208115 0.00000028 0.00000321  0.54D-02      2.52
   3   32   26    0    -183.81586960    -183.81586960   -0.00000000    0.00000184 0.00000001 0.00000010  0.12D-04      3.33

 ** WVFN ****  CONVERGENCE REACHED, FINAL GRADIENT:  0.39D-07


 First order charge density matrix for state 1.1 saved on record  2140.1 (density set 1)

 Results for state 1.1
 =====================

 !MCSCF STATE 1.1 Energy             -183.815869596230
 Nuclear energy                        51.86667926
 Kinetic energy                       183.99015099
 One electron energy                 -353.80265222
 Two electron energy                  118.12010336
 Virial ratio                           1.99905277

 !MCSCF STATE 1.1 Dipole moment        -0.11782657    -0.06942951    -0.00000000
 Dipole moment /Debye                  -0.29946565    -0.17646066    -0.00000000


 Natural orbital dump at molpro section  2140.1    (Orbital set 2)



 **********************************************************************************************************************************
 DATASETS  * FILE   NREC   LENGTH (MB)   RECORD NAMES
              1      21       26.72       500      610      700      701      900      950      970     1001      129      960   
                                          VAR    BASINP    GEOM     GEOM    SYMINP    ZMAT    AOBASIS   BASIS     P2S    ABASIS    
                                         1100     1400     1410     1200     1210     1080     1600     1650     1700     2140   
                                           S        T        V       H0       H01     AOSYM     SMH    MOLCAS    OPER     MCSCF   
                                         1380   
                                         JKOP   

              2       9        1.19       700     1000      520     2100     2140      701     1001     2141     5500   
                                         GEOM     BASIS   MCVARS     RHF     MCSCF    GEOM     BASIS    MCSCF    HINFO   

 PROGRAMS   *        TOTAL     MULTI       RS2     MULTI        HF       INT
 CPU TIMES  *      1407.14      3.93    223.73      2.18      0.06      0.33
 REAL TIME  *      1433.13 SEC
 DISK USED  *         2.06 GB      
 SF USED    *         1.21 GB      
 GA USED    *         0.00 MB       (max)       0.00 MB       (current)
 **********************************************************************************************************************************

1PROGRAM * RS2 (Multireference RS Perturbation Theory)     Authors: H.-J. Werner (1993), P. Celani (1998)


 Level shift= 0.25

 Convergence thresholds:  THRVAR = 1.00D-10  THRDEN = 1.00D-08

 Number of optimized states:  1  Roots:   1
 Number of reference states:  1  Roots:   1

 Reference symmetry:                   1   Triplet 
 Number of electrons:                 22
 Maximum number of shells:             6
 Maximum number of spin couplings:   297

 Reference space:     6555 conf    20790 CSFs
 N elec internal:    24345 conf   101970 CSFs
 N-1 el internal:    36100 conf   292380 CSFs
 N-2 el internal:    45318 conf   713004 CSFs

 Number of electrons in valence space:                     16
 Maximum number of open shell orbitals in reference space:  8
 Maximum number of open shell orbitals in internal spaces: 12


 Number of core orbitals:           3 (   3 )
 Number of closed-shell orbitals:   2 (   2 )
 Number of active  orbitals:       10 (  10 )
 Number of external orbitals:      54 (  54 )

 Molecular orbitals read from record     2140.1  Type=MCSCF/NATURAL (state 1.1)

 Coulomb and exchange operators available. No transformation done.

 Number of p-space configurations:  41

 Reference wavefunction optimized for reference space (refopt=1)

 State     Reference Energy 
   1        -183.81586960

 Number of blocks in overlap matrix:     2   Smallest eigenvalue:  0.15D-01
 Number of N-2 electron functions:     144
 Number of N-1 electron functions:  292380

 Number of internal configurations:               101970
 Number of singly external configurations:      15788520
 Number of doubly external configurations:        210276
 Total number of contracted configurations:     16100766
 Total number of uncontracted configurations: 1048608414

 Weight factors for SA-density in H0:    1.000000

 FIMAX=  0.27D+00  FXMAX=  0.45D-07  DIAG=  F  F  NOREF=1  NOINT=0  IHPPD=2

 Nuclear energy:                      51.86667926
 Core energy:                       -173.23866009
 Zeroth-order valence energy:        -12.11036657
 Zeroth-order total energy:         -133.48234740
 First-order energy:                 -50.33352220

 Using uncontracted singles

 Diagonal Coupling coefficients finished.               Storage: 1801509 words, CPU-Time:      0.00 seconds.
 Energy denominators for pairs finished in 0 passes.    Storage: 1782267 words, CPU-time:      0.00 seconds.

 A level shift of 0.25 is applied.

  ITER. STATE  ROOT     SQ.NORM     CORR.ENERGY   TOTAL ENERGY   ENERGY CHANGE       DEN1      VAR(S)    VAR(P)      TIME
    1     1     1     1.03556318    -0.00889080  -183.82476039    -0.00889080    -0.29332019  0.36D-01  0.41D-01    20.01
    2     1     1     1.08084976    -0.32074416  -184.13661376    -0.31185337    -0.00274093  0.48D-03  0.15D-03    35.39
    3     1     1     1.08214418    -0.32311203  -184.13898163    -0.00236787    -0.00147922  0.17D-04  0.29D-05    50.67
    4     1     1     1.08241771    -0.32323971  -184.13910930    -0.00012767    -0.00004988  0.91D-06  0.13D-06    65.88
    5     1     1     1.08247263    -0.32325613  -184.13912573    -0.00001642    -0.00004405  0.74D-07  0.60D-08    81.08
    6     1     1     1.08248026    -0.32325821  -184.13912781    -0.00000208    -0.00000033  0.80D-08  0.41D-09    96.05
    7     1     1     1.08248292    -0.32325889  -184.13912848    -0.00000068    -0.00000214  0.11D-08  0.31D-10   110.94
    8     1     1     1.08248316    -0.32325894  -184.13912854    -0.00000006     0.00000014  0.18D-09  0.30D-11   125.86
    9     1     1     1.08248333    -0.32325899  -184.13912858    -0.00000004    -0.00000015  0.32D-10  0.35D-12   140.66
   10     1     1     1.08248333    -0.32325899  -184.13912858     0.00000000     0.00000003  0.61D-11  0.46D-13   155.46

 Energies without level shift correction:

   10     1     1     1.08248333    -0.30263816  -184.11850775

 Energy contributions for state 1.1:
 ===================================

            Energy contr.      SQ.Norm of FOWF
 Space I     -0.00534330          0.00246170
 Space S     -0.11896990          0.03865538
 Space P     -0.17832496          0.04136625


 =====================================
 Analysis of CPU times by interactions
 =====================================

       I      S      P

 I   2.1%
 S  10.6%  25.0%
 P   1.3%  46.5%   0.4%

 Initialization:   8.7%
 Other:            5.4%

 Total CPU:      155.5 seconds
 =====================================


 Initialize record     7000.1
 Now solve CP-CASPT2 equations

 A level shift of 0.25 is applied.

  ITER. STATE  ROOT     SQ.NORM     CORR.ENERGY   TOTAL ENERGY   ENERGY CHANGE       DEN1      VAR(S)    VAR(P)      TIME
    1     1     1     1.05343633    -0.01870238  -183.83457198    -0.01870238    -0.37765924  0.51D-01  0.53D-01   220.33
    2     1     1     1.11071657    -0.41676422  -184.23263382    -0.39806184    -0.00441780  0.70D-03  0.23D-03   235.74
    3     1     1     1.11279955    -0.42018783  -184.23605743    -0.00342361    -0.00209231  0.27D-04  0.42D-05   250.93
    4     1     1     1.11320820    -0.42037708  -184.23624668    -0.00018925    -0.00009079  0.14D-05  0.21D-06   265.95
    5     1     1     1.11329598    -0.42040305  -184.23627265    -0.00002597    -0.00006416  0.11D-06  0.90D-08   281.00
    6     1     1     1.11330814    -0.42040635  -184.23627594    -0.00000330    -0.00000144  0.12D-07  0.62D-09   296.09
    7     1     1     1.11331244    -0.42040744  -184.23627704    -0.00000110    -0.00000315  0.16D-08  0.46D-10   310.98
    8     1     1     1.11331285    -0.42040754  -184.23627714    -0.00000010     0.00000015  0.26D-09  0.44D-11   325.89
    9     1     1     1.11331313    -0.42040761  -184.23627721    -0.00000007    -0.00000023  0.47D-10  0.50D-12   340.63
   10     1     1     1.11331313    -0.42040761  -184.23627721     0.00000000     0.00000004  0.89D-11  0.66D-13   355.37
   11     1     1     1.11331316    -0.42040762  -184.23627722    -0.00000001    -0.00000002  0.18D-11  0.96D-14   370.11

 Energies without level shift correction:

   11     1     1     1.11331316    -0.39207933  -184.20794893

 Energy contributions for state 1.1:
 ===================================

            Energy contr.      SQ.Norm of FOWF
 Space I     -0.00809344          0.00382398
[...]
 NUMBER OF CONTRACTIONS:           69   (  69A   )
 NUMBER OF CORE ORBITALS:           3   (   3A   )
 NUMBER OF VALENCE ORBITALS:       12   (  12A   )

 SYMMETRY CHANGED: INITIALIZING OCCUPATION


 NUCLEAR REPULSION ENERGY   51.82298786

 EXTRA SYMMETRY OF AOS IN SYMMETRY 1:   1 1 1 1 1 1 2 1 1 2   1 1 2 1 1 2 1 2 1 1   2 1 2 1 1 1 1 1 1 2   1 1 2 1 1 2 1 1 2 1
                                        2 1 1 2 1 2 1 1 1 1   1 1 2 1 1 2 1 1 2 1   1 2 1 2 1 1 2 1 2

 Eigenvalues of metric

         1 0.133E-03 0.570E-03 0.265E-02 0.465E-02 0.104E-01 0.106E-01 0.184E-01 0.325E-01


 Contracted 2-electron integrals neglected if value below      1.0D-11
 AO integral compression algorithm  1   Integral accuracy      1.0D-11

     10.224 MB (compressed) written to integral file ( 33.6%)

     Node minimum: 1.311 MB, node maximum: 1.573 MB


 NUMBER OF SORTED TWO-ELECTRON INTEGRALS:     417795.     BUFFER LENGTH:  32768
 NUMBER OF SEGMENTS:   1  SEGMENT LENGTH:     417795      RECORD LENGTH: 524288

 Memory used in sort:       0.97 MW

 SORT1 READ     4039007. AND WROTE      205388. INTEGRALS IN      1 RECORDS. CPU TIME:     0.03 SEC, REAL TIME:     0.03 SEC
 SORT2 READ     1453812. AND WROTE     2917320. INTEGRALS IN     42 RECORDS. CPU TIME:     0.01 SEC, REAL TIME:     0.02 SEC

 Node minimum:      415725.  Node maximum:      417795. integrals

 OPERATOR DM      FOR CENTER  0  COORDINATES:    0.000000    0.000000    0.000000
1PROGRAM * MULTI (Direct Multiconfiguration SCF)       Authors: P.J. Knowles, H.-J. Werner (1984)     S.T. Elbert (1988)



 Number of closed-shell orbitals:   5 (   5 )
 Number of active  orbitals:       10 (  10 )
 Number of external orbitals:      75 (  54 )

 State symmetry 1

 Number of electrons:    12    Spin symmetry=Triplet   Space symmetry=1
 Number of states:        1
 Number of CSFs:      20790   (30240 determinants, 30240 intermediate states)

 Molecular orbitals read from record     2140.2  Type=MCSCF/NATURAL (state 1.1)
 
 Present basis size:      69
 Previous basis size:     48  21
 Previous occupation:     12   3
 Previous closed-shells:   5   0
 Present occupation:      15
 Present closed-shells:    5
 Wavefunction symmetry:    1   Triplet 

 Orbital overlap <old|new>:  < 1.1| 1.1> = 1.000000   < 2.1| 2.1> = 1.000000   < 3.1| 3.1> = 1.000000   < 4.1| 4.1> = 1.000000
                             < 5.1| 5.1> = 1.000000   < 6.1| 6.1> = 1.000000   < 7.1| 7.1> = 1.000000   < 8.1| 8.1> = 1.000000
                             < 9.1| 9.1> = 1.000000   <10.1|10.1> = 1.000000   <11.1|11.1> = 1.000000   <12.1|12.1> = 1.000000
                             < 1.2|13.1> = 1.000000   < 2.2|14.1> = 1.000000   < 3.2|15.1> = 1.000000

 Wavefunction dump at record             2141.2

 Convergence thresholds  0.10E-04 (gradient)  0.10E-07 (energy)  0.10E-02 (step length)

 Number of orbital rotations:      860   (    50 Core/Active    270 Core/Virtual   0 Active/Active    540 Active/Virtual)
 Total number of variables:      31100


 ITER. MIC  NCI  NEG     ENERGY(VAR)     ENERGY(PROJ)   ENERGY CHANGE     GRAD(0)  GRAD(ORB)   GRAD(CI)     STEP       TIME

   1   51   22    0    -183.81468364    -183.81468364   -0.00000000    0.00000021 0.00000001 0.00000012  0.32D-06      0.61

 ** WVFN ****  CONVERGENCE REACHED, FINAL GRADIENT:  0.25D-07


 First order charge density matrix for state 1.1 saved on record  2141.2 (density set 1)

 Results for state 1.1
 =====================

 !MCSCF STATE 1.1 Energy             -183.814683638478
 Nuclear energy                        51.82298786
 Kinetic energy                       183.96516310
 One electron energy                 -353.71410816
 Two electron energy                  118.07643666
 Virial ratio                           1.99918202

 !MCSCF STATE 1.1 Dipole moment        -0.11588664    -0.06907152    -0.00000000
 Dipole moment /Debye                  -0.29453517    -0.17555079    -0.00000000


 Natural orbital dump at molpro section  2141.2    (Orbital set 2)



 **********************************************************************************************************************************
 DATASETS  * FILE   NREC   LENGTH (MB)   RECORD NAMES
              1      21       26.69       500      610      700      701      900      702      950      970     1001      129   
                                          VAR    BASINP    GEOM     GEOM    SYMINP    GEOM     ZMAT    AOBASIS   BASIS     P2S  
                                          960     1100     1400     1410     1200     1210     1080     1600     1650     1700   
                                        ABASIS      S        T        V       H0       H01     AOSYM     SMH    MOLCAS    OPER   
                                         1380   
                                         JKOP   

              2      12        1.20       700     1000      520     2100     2140      701     1001     2141     5300     5400   
                                         GEOM     BASIS   MCVARS     RHF     MCSCF    GEOM     BASIS    MCSCF    HESS     FREQ   
                                         5450      702   
                                         NMOD     GEOM   

 PROGRAMS   *        TOTAL     MULTI       RS2     MULTI        HF       INT
 CPU TIMES  *      9653.85      1.22    223.73      2.18      0.06      0.33
 REAL TIME  *      9804.77 SEC
 DISK USED  *         2.10 GB      
 SF USED    *         1.21 GB      
 GA USED    *         0.00 MB       (max)       0.00 MB       (current)
 **********************************************************************************************************************************

1PROGRAM * RS2 (Multireference RS Perturbation Theory)     Authors: H.-J. Werner (1993), P. Celani (1998)


 Level shift= 0.25

 Convergence thresholds:  THRVAR = 1.00D-10  THRDEN = 1.00D-08

 Number of optimized states:  1  Roots:   1
 Number of reference states:  1  Roots:   1

 Reference symmetry:                   1   Triplet 
 Number of electrons:                 22
 Maximum number of shells:             6
 Maximum number of spin couplings:   297

 Reference space:     6555 conf    20790 CSFs
 N elec internal:    24345 conf   101970 CSFs
 N-1 el internal:    36100 conf   292380 CSFs
 N-2 el internal:    45318 conf   713004 CSFs

 Number of electrons in valence space:                     16
 Maximum number of open shell orbitals in reference space:  8
 Maximum number of open shell orbitals in internal spaces: 12


 Number of core orbitals:           3 (   3 )
 Number of closed-shell orbitals:   2 (   2 )
 Number of active  orbitals:       10 (  10 )
 Number of external orbitals:      54 (  54 )

 Molecular orbitals read from record     2141.2  Type=MCSCF/NATURAL (state 1.1)

 Coulomb and exchange operators available. No transformation done.

 Number of p-space configurations:  42

 Reference wavefunction optimized for reference space (refopt=1)

 State     Reference Energy 
   1        -183.81468364

 Number of blocks in overlap matrix:     2   Smallest eigenvalue:  0.16D-01
 Number of N-2 electron functions:     144
 Number of N-1 electron functions:  292380

 Number of internal configurations:               101970
 Number of singly external configurations:      15788520
 Number of doubly external configurations:        210276
 Total number of contracted configurations:     16100766
 Total number of uncontracted configurations: 1048608414

 Weight factors for SA-density in H0:    1.000000

 FIMAX=  0.27D+00  FXMAX=  0.48D-07  DIAG=  F  F  NOREF=1  NOINT=0  IHPPD=2

 Nuclear energy:                      51.82298786
 Core energy:                       -173.21602838
 Zeroth-order valence energy:        -12.09917835
 Zeroth-order total energy:         -133.49221887
 First-order energy:                 -50.32246477

 Using uncontracted singles

 Diagonal Coupling coefficients finished.               Storage: 1800361 words, CPU-Time:      0.00 seconds.
 Energy denominators for pairs finished in 0 passes.    Storage: 1781119 words, CPU-time:      0.00 seconds.

 A level shift of 0.25 is applied.

  ITER. STATE  ROOT     SQ.NORM     CORR.ENERGY   TOTAL ENERGY   ENERGY CHANGE       DEN1      VAR(S)    VAR(P)      TIME
    1     1     1     1.03589991    -0.00897498  -183.82365862    -0.00897498    -0.29389794  0.36D-01  0.41D-01    20.01
    2     1     1     1.08114788    -0.32134579  -184.13602943    -0.31237081    -0.00267041  0.48D-03  0.15D-03    35.38
    3     1     1     1.08243599    -0.32370483  -184.13838847    -0.00235904    -0.00147737  0.17D-04  0.28D-05    50.54
    4     1     1     1.08270675    -0.32383118  -184.13851482    -0.00012635    -0.00004839  0.91D-06  0.13D-06    65.59
    5     1     1     1.08276125    -0.32384746  -184.13853110    -0.00001628    -0.00004366  0.72D-07  0.59D-08    80.73
    6     1     1     1.08276877    -0.32384951  -184.13853315    -0.00000205    -0.00000032  0.77D-08  0.39D-09    95.81
    7     1     1     1.08277140    -0.32385018  -184.13853381    -0.00000067    -0.00000210  0.11D-08  0.30D-10   110.79
    8     1     1     1.08277163    -0.32385023  -184.13853387    -0.00000006     0.00000014  0.17D-09  0.28D-11   125.85
    9     1     1     1.08277180    -0.32385028  -184.13853391    -0.00000004    -0.00000015  0.29D-10  0.33D-12   140.77
   10     1     1     1.08277180    -0.32385028  -184.13853391     0.00000000     0.00000003  0.55D-11  0.42D-13   155.70

 Energies without level shift correction:

   10     1     1     1.08277180    -0.30315733  -184.11784096

 Energy contributions for state 1.1:
 ===================================

            Energy contr.      SQ.Norm of FOWF
 Space I     -0.00537756          0.00248529
 Space S     -0.11958129          0.03894479
 Space P     -0.17819847          0.04134172


 =====================================
 Analysis of CPU times by interactions
 =====================================

       I      S      P

 I   2.1%
 S  10.6%  25.1%
 P   1.3%  46.1%   0.6%

 Initialization:   8.7%
 Other:            5.5%

 Total CPU:      155.7 seconds
 =====================================


 Initialize record     7000.1
 Now solve CP-CASPT2 equations

 A level shift of 0.25 is applied.

  ITER. STATE  ROOT     SQ.NORM     CORR.ENERGY   TOTAL ENERGY   ENERGY CHANGE       DEN1      VAR(S)    VAR(P)      TIME
    1     1     1     1.05400168    -0.01887799  -183.83356162    -0.01887799    -0.37857254  0.52D-01  0.53D-01   221.06
    2     1     1     1.11121792    -0.41774779  -184.23243143    -0.39886981    -0.00432288  0.70D-03  0.23D-03   236.73
    3     1     1     1.11329581    -0.42116337  -184.23584701    -0.00341558    -0.00209264  0.27D-04  0.41D-05   251.97
    4     1     1     1.11370060    -0.42135088  -184.23603452    -0.00018751    -0.00008855  0.14D-05  0.20D-06   267.30
    5     1     1     1.11378793    -0.42137668  -184.23606032    -0.00002580    -0.00006372  0.11D-06  0.88D-08   282.32
    6     1     1     1.11379993    -0.42137993  -184.23606357    -0.00000325    -0.00000141  0.12D-07  0.60D-09   297.42
    7     1     1     1.11380419    -0.42138102  -184.23606465    -0.00000109    -0.00000311  0.16D-08  0.44D-10   312.37
    8     1     1     1.11380459    -0.42138111  -184.23606475    -0.00000010     0.00000015  0.25D-09  0.42D-11   327.40
    9     1     1     1.11380487    -0.42138118  -184.23606482    -0.00000007    -0.00000022  0.43D-10  0.47D-12   342.41
   10     1     1     1.11380487    -0.42138118  -184.23606482     0.00000000     0.00000003  0.81D-11  0.61D-13   357.26

 Energies without level shift correction:

   10     1     1     1.11380487    -0.39292997  -184.20761360

 Energy contributions for state 1.1:
 ===================================

            Energy contr.      SQ.Norm of FOWF
 Space I     -0.00815521          0.00386561
 Space S     -0.16244753          0.05652925
 Space P     -0.22232722          0.05341001


 =====================================
 Analysis of CPU times by interactions
 =====================================

       I      S      P

 I   0.9%
 S   9.0%  22.1%
 P   0.6%  40.2%   0.5%

 Initialization:  55.7%
 Other:          -28.9%

 Total CPU:      357.3 seconds
 =====================================



 Reference coefficients greater than 0.0500000
 =============================================
 2222222//000           0.9532976
 2222220//020          -0.1266394
 2222202//200          -0.1102434
 22222/\///\0          -0.0836431
 2222/22\//00           0.0648570
 22222////\\0          -0.0591089
 22222/\//\/0           0.0586383



 RESULTS FOR STATE 1.1
 =====================

 Coefficient of reference function:   C(0) = 1.00000000 (fixed)   1.00000000 (relaxed)

 Energy contributions of configuration classes

 CLASS          SQ.NORM        ECORR1        ECORR2
 +++++++++++++++++++++++++++++++++++++++++++++++++++
 Internals    0.00386561   -0.00660753    0.27180288
 Singles      0.05652925   -0.13907431   -0.24851231
 Pairs        0.05341001   -0.19886137   -0.34714084
 Total        1.11380487   -0.34454321   -0.32385028
 +++++++++++++++++++++++++++++++++++++++++++++++++++


 Reference energy                    -183.81468364
 Nuclear energy                        51.82298786
 Kinetic energy                       184.21500214
 One electron energy                 -353.48355246
 Two electron energy                  117.52203068
 Virial quotient                       -0.99958490
 Correlation energy                    -0.32385028
 !RSPT2 STATE 1.1 Energy             -184.138533913805

 Properties without orbital relaxation:

 !RSPT2 STATE 1.1 Dipole moment        -0.12599024    -0.06661811     0.00000000
 Dipole moment /Debye                  -0.32021427    -0.16931526     0.00000000


 **********************************************************************************************************************************

1PROGRAM * MULTI (Direct Multiconfiguration SCF)       Authors: P.J. Knowles, H.-J. Werner (1984)     S.T. Elbert (1988)


 Number of closed-shell orbitals:   5 (   5 )
 Number of active  orbitals:       10 (  10 )
 Number of external orbitals:      75 (  54 )

 State symmetry 1

 Number of electrons:    12    Spin symmetry=Triplet   Space symmetry=1
 Number of states:        1
 Number of CSFs:      20790
 
 Maximum number of shells:             6
 Maximum number of spin couplings:   297

 Storage for configuration lists   23858, coupling coefficients1494454, address lists 319560

 Molecular orbitals read from record     2141.2  Type=MCSCF/NATURAL (state 1.1)

 Wavefunction dump at record             3140.4

 Convergence thresholds  0.10E-04 (gradient)  0.10E-07 (energy)  0.10E-02 (step length)

 Eigenvalues of redundancy matrix
   1- 10   -0.000000   -0.000000   -0.000000   -0.000000   -0.000000   -0.000000   -0.000000   -0.000000   -0.000000   -0.000000
  11- 20   -0.000000   -0.000000   -0.000000   -0.000000   -0.000000    0.000000    0.000000    0.000000    0.000000    0.000000
  21- 30    0.000000    0.000000    0.000000    0.000000    0.000000    0.000000    0.000000    0.000000    0.000000    0.000000
  31- 40    0.000000    0.000000    0.000000    0.000000    0.000000    0.000000    0.000000    0.000000    0.000000    0.000000
  41- 45    0.000000    0.000000    0.000000    0.000000    0.000000

 Number of orbital rotations:      860   (    50 Core/Active    270 Core/Virtual   0 Active/Active    540 Active/Virtual)
 Total number of variables:      21650


 ITER. MIC  NCI  NEG     ENERGY(VAR)     ENERGY(PROJ)   ENERGY CHANGE     GRAD(0)  GRAD(ORB)   GRAD(CI)     STEP       TIME

   1   51   20    0    -183.81468364    -183.81468364    0.00000000    0.00000002 0.00000000 0.00000020  0.00D+00      2.19

 Warning: orbitals not optimized!

 Solving MCSCF z-vector equations for state  1.1, requested accuracy=      0.10D-05
 Convergence reached in  19 iterations ( 19 expansion vectors), accuracy=  0.66D-06

 Properties including orbital relaxation:

 !RSPT2 dipole moments (ED):           -0.19860461    -0.07329494     0.00000000

 RSPT2 Gradient info saved on record         5200.1

 CPU-time for rhs:          122.86 sec
 CPU-time for cpmcscf:        7.68 sec
 CPU-time for densities:      0.00 sec


 **********************************************************************************************************************************
 DATASETS  * FILE   NREC   LENGTH (MB)   RECORD NAMES
              1      27      288.15       500      610      700      701      900      702      950      970     1001      129   
                                          VAR    BASINP    GEOM     GEOM    SYMINP    GEOM     ZMAT    AOBASIS   BASIS     P2S  
                                          960     1100     1400     1410     1200     1210     1080     1600     1650     1700   
                                        ABASIS      S        T        V       H0       H01     AOSYM     SMH    MOLCAS    OPER   
                                         1380     7000     7001     5200     5210     7009     7005   
                                         JKOP                      RS2GRAD  RS2GRAD    

              2      12        1.20       700     1000      520     2100     2140      701     1001     2141     5300     5400   
                                         GEOM     BASIS   MCVARS     RHF     MCSCF    GEOM     BASIS    MCSCF    HESS     FREQ   
                                         5450      702   
                                         NMOD     GEOM   

 PROGRAMS   *        TOTAL       RS2       RS2     MULTI        HF       INT
 CPU TIMES  *     10219.98    566.14    223.73      2.18      0.06      0.33
 REAL TIME  *     10379.42 SEC
 DISK USED  *         2.10 GB      
 SF USED    *         1.21 GB      
 GA USED    *         0.00 MB       (max)       0.00 MB       (current)
 **********************************************************************************************************************************


 **********************************************************************************************************************************
 DATASETS  * FILE   NREC   LENGTH (MB)   RECORD NAMES
              1      27      288.15       500      610      700      701      900      702      950      970     1001      129   
                                          VAR    BASINP    GEOM     GEOM    SYMINP    GEOM     ZMAT    AOBASIS   BASIS     P2S  
                                          960     1100     1400     1410     1200     1210     1080     1600     1650     1700   
                                        ABASIS      S        T        V       H0       H01     AOSYM     SMH    MOLCAS    OPER   
                                         1380     7000     7001     5200     5210     7009     7005   
                                         JKOP                      RS2GRAD  RS2GRAD    

              2      12        1.20       700     1000      520     2100     2140      701     1001     2141     5300     5400   
                                         GEOM     BASIS   MCVARS     RHF     MCSCF    GEOM     BASIS    MCSCF    HESS     FREQ   
                                         5450      702   
                                         NMOD     GEOM   

 PROGRAMS   *        TOTAL      FREQ       RS2     MULTI        HF       INT
 CPU TIMES  *     10219.98   9993.58    223.73      2.18      0.06      0.33
 REAL TIME  *     10379.42 SEC
 DISK USED  *         2.10 GB      
 SF USED    *         1.21 GB      
 GA USED    *         0.00 MB       (max)       0.00 MB       (current)
 **********************************************************************************************************************************

 RS2/aug-cc-pVDZ energy=   -184.138533913805

        RS2             MULTI           HF-SCF  
   -184.13853392   -183.81468364   -183.65564091
 **********************************************************************************************************************************
 Variable memory released
