
 Primary working directories    : /scratch/kmoore
 Secondary working directories  : /scratch/kmoore
 Wavefunction directory         : /scratch/kmoore/
 Main file repository           : /scratch/kmoore/

 SHA1      : b6b3a4772808bb2d43777f23454e145ddfe12dc3
 NAME      : 2015.1.1
 ARCHNAME  : linux/x86_64
 FC        : /soft/mvapich2/2.2b_psm/intel-15.0/bin/mpif90
 BLASLIB   : -L/soft/intel/15.0.1/composer_xe_2015.0.090/mkl/lib/intel64 -lmkl_intel_ilp64 -lmkl_sequential -lmkl_core
 id        : anlgov

 Nodes     nprocs
 b441         7
 Number of processes for MPI-2 version of Molpro:   nprocs(total)=    8   nprocs(compute)=    7   nprocs(helper)=    1

 Using customized tuning parameters: mindgm=1; mindgv=20; mindgc=4; mindgr=1; noblas=0; minvec=7
 default implementation of scratch files=sf  

 ***,title
 memory,1000,m
 
 symmetry,z
 geometry
 N     -0.261771253943759    -0.286020988794038     0.000000000000000
 N     -1.294808085791807     0.174839490940442     0.000000000000000
 O      1.362740353561964     0.097336197280055     0.000000000000000
 end
 
 nn(1)=1
 nn(2)=2
 nn(3)=3
 
 basis=aug-cc-pVDZ
 {hf,maxit=1000
   wf,22,1,2,0}
 
 {multi,maxit=40;close,5;noextra;failsafe;
   wf,22,1,0,0}
 
 {rs2,shift=0.25;close,5;maxiter,100000,100000;wf,22,1,0,0}
 
 {freq
  print,hessian}

 Variables initialized (889), CPU time= 0.01 sec
 Commands  initialized (702), CPU time= 0.01 sec, 572 directives.
 Default parameters read. Elapsed time= 0.06 sec

 Checking input...
 Passed
1


                                         ***  PROGRAM SYSTEM MOLPRO  ***
                                       Copyright, TTI GmbH Stuttgart, 2015
                                    Version 2015.1 linked Jan  8 2016 07:59:11


 **********************************************************************************************************************************
 LABEL *   title                                                                         
  64 bit mpp version                                                                     DATE: 04-Mar-19          TIME: 12:15:26  
 **********************************************************************************************************************************

 SHA1:             b6b3a4772808bb2d43777f23454e145ddfe12dc3
 **********************************************************************************************************************************

 Variable memory set to 1000000000 words,  buffer space   230000 words

 ZSYMEL=Z  
 

Geometry recognized as XYZ

 SETTING NN(1)          =         1.00000000                                  
 SETTING NN(2)          =         2.00000000                                  
 SETTING NN(3)          =         3.00000000                                  
 SETTING BASIS          =    AUG-CC-PVDZ


 Recomputing integrals since basis changed


 Using spherical harmonics

 Library entry N      S aug-cc-pVDZ          selected for orbital group  1
 Library entry N      P aug-cc-pVDZ          selected for orbital group  1
 Library entry N      D aug-cc-pVDZ          selected for orbital group  1
 Library entry O      S aug-cc-pVDZ          selected for orbital group  2
 Library entry O      P aug-cc-pVDZ          selected for orbital group  2
 Library entry O      D aug-cc-pVDZ          selected for orbital group  2

1PROGRAM * SEWARD (Integral evaluation for generally contracted gaussian basis sets)     Author: Roland Lindh, 1990

 Geometry written to block  1 of record 700


 Point group  Cs  



 ATOMIC COORDINATES

 NR  ATOM    CHARGE       X              Y              Z

   1  N       7.00   -0.494675977   -0.540501335    0.000000000
   2  N       7.00   -2.446832666    0.330398754    0.000000000
   3  O       8.00    2.575206047    0.183938755    0.000000000

 Bond lengths in Bohr (Angstrom)

 1-2  2.137611448  1-3  3.154201815
     ( 1.131175264)     ( 1.669131719)

 Bond angles

  2-1-3  142.67938169

 NUCLEAR CHARGE:                   22
 NUMBER OF PRIMITIVE AOS:         111
 NUMBER OF SYMMETRY AOS:          105
 NUMBER OF CONTRACTIONS:           69   (  48A'  +  21A"  )
 NUMBER OF CORE ORBITALS:           3   (   3A'  +   0A"  )
 NUMBER OF VALENCE ORBITALS:       12   (   9A'  +   3A"  )


 NUCLEAR REPULSION ENERGY   51.82298786

 Eigenvalues of metric

         1 0.133E-03 0.570E-03 0.265E-02 0.465E-02 0.106E-01 0.184E-01 0.325E-01 0.376E-01
         2 0.104E-01 0.372E-01 0.820E-01 0.161E+00 0.173E+00 0.254E+00 0.328E+00 0.361E+00


 Contracted 2-electron integrals neglected if value below      1.0D-11
 AO integral compression algorithm  1   Integral accuracy      1.0D-11

     10.224 MB (compressed) written to integral file ( 59.7%)

     Node minimum: 1.311 MB, node maximum: 1.573 MB


 NUMBER OF SORTED TWO-ELECTRON INTEGRALS:     219723.     BUFFER LENGTH:  32768
 NUMBER OF SEGMENTS:   1  SEGMENT LENGTH:     219723      RECORD LENGTH: 524288

 Memory used in sort:       0.78 MW

 SORT1 READ     2065561. AND WROTE      212970. INTEGRALS IN      1 RECORDS. CPU TIME:     0.02 SEC, REAL TIME:     0.03 SEC
 SORT2 READ     1485909. AND WROTE     1533840. INTEGRALS IN     42 RECORDS. CPU TIME:     0.01 SEC, REAL TIME:     0.01 SEC

 Node minimum:      218517.  Node maximum:      219723. integrals

 OPERATOR DM      FOR CENTER  0  COORDINATES:    0.000000    0.000000    0.000000


 **********************************************************************************************************************************
 DATASETS  * FILE   NREC   LENGTH (MB)   RECORD NAMES
              1      18       19.21       500      610      700      900      950      970     1000      129      960     1100   
                                          VAR    BASINP    GEOM    SYMINP    ZMAT    AOBASIS   BASIS     P2S    ABASIS      S 
                                         1400     1410     1200     1210     1080     1600     1650     1700   
                                           T        V       H0       H01     AOSYM     SMH    MOLCAS    OPER   

 PROGRAMS   *        TOTAL       INT
 CPU TIMES  *         0.45      0.34
 REAL TIME  *         1.02 SEC
 DISK USED  *        36.57 MB      
 GA USED    *         0.00 MB       (max)       0.00 MB       (current)
 **********************************************************************************************************************************

1PROGRAM * RHF-SCF (OPEN SHELL)       Authors: W. Meyer, H.-J. Werner


 NUMBER OF ELECTRONS:      12+   10-    SPACE SYMMETRY=1    SPIN SYMMETRY: Triplet 
 CONVERGENCE THRESHOLDS:    1.00E-06 (Density)    1.00E-07 (Energy)
 MAX. NUMBER OF ITERATIONS:     1000
 INTERPOLATION TYPE:            DIIS
 INTERPOLATION STEPS:              2 (START)      1 (STEP)
 LEVEL SHIFTS:                 -0.60 (CLOSED) -0.30 (OPEN) 



 Orbital guess generated from atomic densities. Full valence occupancy:   12   3

 Molecular orbital dump at record        2100.2

 Initial alpha occupancy:  10   2
 Initial beta  occupancy:   8   2
 Wave function symmetry:    1

 ITERATION    DDIFF          GRAD             ENERGY        2-EL.EN.            DIPOLE MOMENTS         DIIS   ORB.
    1      0.000D+00      0.000D+00      -183.50148291    232.312395   -1.10596   -0.26821    0.00000    0    start
    2      0.000D+00      0.112D-01      -183.59932177    235.071160   -0.32729   -0.05305    0.00000    1    diag,B
    3      0.191D-01      0.487D-02      -183.62111531    235.512536   -0.31953   -0.08084    0.00000    2    diag,B
    4      0.822D-02      0.242D-02      -183.63752507    235.739544   -0.25704   -0.05954    0.00000    3    diag,B
    5      0.468D-02      0.168D-02      -183.64914001    235.898059   -0.20519   -0.05395    0.00000    4    diag,B
    6      0.475D-02      0.105D-02      -183.65430209    235.992040   -0.16869   -0.04928    0.00000    5    diag,B
    7      0.358D-02      0.559D-03      -183.65557958    236.028711   -0.13203   -0.05159    0.00000    6    fixocc
    8      0.237D-02      0.173D-03      -183.65562836    236.039647   -0.12858   -0.04967    0.00000    7    diag,B
    9      0.458D-03      0.669D-04      -183.65563869    236.039312   -0.12158   -0.04990    0.00000    8    diag,B
   10      0.204D-03      0.301D-04      -183.65564039    236.041707   -0.11923   -0.04984    0.00000    9    orth
   11      0.702D-04      0.133D-04      -183.65564076    236.040419   -0.11870   -0.04983    0.00000    9    diag,B
   12      0.548D-04      0.712D-05      -183.65564088    236.041119   -0.11806   -0.04991    0.00000    9    diag,B
   13      0.227D-04      0.332D-05      -183.65564091    236.040985   -0.11791   -0.04993    0.00000    9    diag,B
   14      0.127D-04      0.124D-05      -183.65564091    236.040966   -0.11793   -0.04993    0.00000    9    diag,B
   15      0.403D-05      0.480D-06      -183.65564091    236.040932   -0.11797   -0.04994    0.00000    9    diag,B
   16      0.209D-05      0.170D-06      -183.65564091    236.040934   -0.11797   -0.04994    0.00000    9    diag,B
   17      0.557D-06      0.840D-07      -183.65564091    236.040935   -0.11797   -0.04993    0.00000    0    orth

 Final alpha occupancy:  10   2
 Final beta  occupancy:   8   2

 !RHF STATE 1.1 Energy               -183.655640910212
 Nuclear energy                        51.82298786
 One-electron energy                 -353.49909607
 Two-electron energy                  118.02046730
 Virial quotient                       -1.00033351
 !RHF STATE 1.1 Dipole moment          -0.11797139    -0.04993475     0.00000000
 Dipole moment /Debye                  -0.29983372    -0.12691316     0.00000000

 Orbital energies:

         1.1          2.1          3.1          4.1          5.1          6.1          7.1          8.1          9.1         10.1
    -20.659595   -15.717663   -15.710336    -1.470590    -1.276453    -0.814531    -0.661997    -0.620995    -0.687862    -0.561720

        11.1         12.1
      0.102661     0.113458

         1.2          2.2          3.2          4.2
     -0.632288    -0.539842     0.113774     0.156435

 HOMO      2.2    -0.539842 =     -14.6899eV
 LUMO     11.1     0.102661 =       2.7936eV
 LUMO-HOMO         0.642503 =      17.4834eV


 **********************************************************************************************************************************
 DATASETS  * FILE   NREC   LENGTH (MB)   RECORD NAMES
              1      18       19.21       500      610      700      900      950      970     1000      129      960     1100   
                                          VAR    BASINP    GEOM    SYMINP    ZMAT    AOBASIS   BASIS     P2S    ABASIS      S 
                                         1400     1410     1200     1210     1080     1600     1650     1700   
                                           T        V       H0       H01     AOSYM     SMH    MOLCAS    OPER   

              2       4        0.48       700     1000      520     2100   
                                         GEOM     BASIS   MCVARS     RHF  

 PROGRAMS   *        TOTAL        HF       INT
 CPU TIMES  *         0.52      0.07      0.34
 REAL TIME  *         1.09 SEC
 DISK USED  *       177.60 MB      
 SF USED    *         0.01 MB      
 GA USED    *         0.00 MB       (max)       0.00 MB       (current)
 **********************************************************************************************************************************

1PROGRAM * MULTI (Direct Multiconfiguration SCF)       Authors: P.J. Knowles, H.-J. Werner (1984)     S.T. Elbert (1988)


 Number of closed-shell orbitals:   5 (   5   0 )
 Number of active  orbitals:       10 (   7   3 )
 Number of external orbitals:      54 (  36  18 )

 State symmetry 1

 Number of electrons:    12    Spin symmetry=Singlet   Space symmetry=1
 Number of states:        1
 Number of CSFs:       7028   (22148 determinants, 44100 intermediate states)

 Molecular orbitals read from record     2100.2  Type=RHF/CANONICAL (state 1.1)

 Wavefunction dump at record             2140.2

 Convergence thresholds  0.10E-01 (gradient)  0.10E-05 (energy)  0.10E-02 (step length)

 Number of orbital rotations:      521   (    35 Core/Active    180 Core/Virtual   0 Active/Active    306 Active/Virtual)
 Total number of variables:      22669


 ITER. MIC  NCI  NEG     ENERGY(VAR)     ENERGY(PROJ)   ENERGY CHANGE     GRAD(0)  GRAD(ORB)   GRAD(CI)     STEP       TIME

   1   60   28    0    -183.65448445    -183.80626645   -0.15178200    0.16681988 0.00040520 0.01582874  0.14D+01      0.44
   2   48   55    0    -183.80825381    -183.81720633   -0.00895253    0.06842506 0.00000358 0.00230064  0.40D+00      1.19
   3   60   51    0    -183.81798829    -183.81824892   -0.00026062    0.01062792 0.00000006 0.00110276  0.71D-01      1.90
   4   60   50    0    -183.81826302    -183.81828542   -0.00002240    0.00271906 0.00000006 0.00092923  0.25D-01      2.61
   5   60   49    0    -183.81829180    -183.81831422   -0.00002242    0.00145954 0.00000011 0.00119548  0.29D-01      3.28
   6   60   49    0    -183.81833666    -183.81839368   -0.00005702    0.00268513 0.00000007 0.00142868  0.38D-01      3.98
   7   60   49    0    -183.81843863    -183.81855301   -0.00011438    0.00311873 0.00000007 0.00134572  0.42D-01      4.74
   8   60   49    0    -183.81875000    -183.81889174   -0.00014174    0.00794957 0.00000004 0.00062809  0.44D-01      5.43
   9   60   46    0    -183.81891896    -183.81893739   -0.00001843    0.00246807 0.00000001 0.00026594  0.20D-01      6.07
  10   50   41    0    -183.81893896    -183.81893981   -0.00000086    0.00060553 0.00000024 0.00005463  0.41D-02      6.62
  11   40   33    0    -183.81893982    -183.81893982   -0.00000000    0.00002552 0.00000030 0.00000681  0.16D-03      7.02

 ** WVFN ****  CONVERGENCE REACHED, FINAL GRADIENT:  0.15D-05


 First order charge density matrix for state 1.1 saved on record  2140.2 (density set 1)

 Results for state 1.1
 =====================

 !MCSCF STATE 1.1 Energy             -183.818939822065
 Nuclear energy                        51.82298786
 Kinetic energy                       183.40415514
 One electron energy                 -353.38876091
 Two electron energy                  117.74683322
 Virial ratio                           2.00226159

 !MCSCF STATE 1.1 Dipole moment        -0.76589652    -0.13682710     0.00000000
 Dipole moment /Debye                  -1.94658728    -0.34775701     0.00000000


 Natural orbital dump at molpro section  2140.2    (Orbital set 2)



 **********************************************************************************************************************************
 DATASETS  * FILE   NREC   LENGTH (MB)   RECORD NAMES
              1      19       22.92       500      610      700      900      950      970     1000      129      960     1100   
                                          VAR    BASINP    GEOM    SYMINP    ZMAT    AOBASIS   BASIS     P2S    ABASIS      S 
                                         1400     1410     1200     1210     1080     1600     1650     1700     1380   
                                           T        V       H0       H01     AOSYM     SMH    MOLCAS    OPER     JKOP   

              2       5        0.69       700     1000      520     2100     2140   
                                         GEOM     BASIS   MCVARS     RHF     MCSCF   

 PROGRAMS   *        TOTAL     MULTI        HF       INT
 CPU TIMES  *         7.76      7.24      0.07      0.34
 REAL TIME  *         9.59 SEC
 DISK USED  *       177.60 MB      
 SF USED    *        28.38 MB      
 GA USED    *         0.00 MB       (max)       0.00 MB       (current)
 **********************************************************************************************************************************

1PROGRAM * RS2 (Multireference RS Perturbation Theory)     Authors: H.-J. Werner (1993), P. Celani (1998)


 Level shift= 0.25

 Convergence thresholds:  THRVAR = 1.00D-10  THRDEN = 1.00D-08

 Number of optimized states:  1  Roots:   1
 Number of reference states:  1  Roots:   1

 Reference symmetry:                   1   Singlet 
 Number of electrons:                 22
 Maximum number of shells:             7
 Maximum number of spin couplings:   132

 Reference space:     3493 conf     7028 CSFs
 N elec internal:    24795 conf    63360 CSFs
 N-1 el internal:    36100 conf   161700 CSFs
 N-2 el internal:    36132 conf   283696 CSFs

 Number of electrons in valence space:                     16
 Maximum number of open shell orbitals in reference space:  8
 Maximum number of open shell orbitals in internal spaces: 12


 Number of core orbitals:           3 (   3   0 )
 Number of closed-shell orbitals:   2 (   2   0 )
 Number of active  orbitals:       10 (   7   3 )
 Number of external orbitals:      54 (  36  18 )

 Molecular orbitals read from record     2140.2  Type=MCSCF/NATURAL (state 1.1)

 Coulomb and exchange operators available. No transformation done.

 Number of p-space configurations:   2

 Reference wavefunction optimized for reference space (refopt=1)

 State     Reference Energy 
   1        -183.81893982

 Number of blocks in overlap matrix:     4   Smallest eigenvalue:  0.13D-01
 Number of N-2 electron functions:     144
 Number of N-1 electron functions:  161700

 Number of internal configurations:                32028
 Number of singly external configurations:       4373208
 Number of doubly external configurations:        108216
 Total number of contracted configurations:      4513452
 Total number of uncontracted configurations:  216814344

 Weight factors for SA-density in H0:    1.000000

 FIMAX=  0.34D+00  FXMAX=  0.83D-07  DIAG=  F  F  NOREF=1  NOINT=0  IHPPD=2

 Nuclear energy:                      51.82298786
 Core energy:                       -173.21167637
 Zeroth-order valence energy:        -12.84226356
 Zeroth-order total energy:         -134.23095207
 First-order energy:                 -49.58798776

 Using uncontracted singles

 Diagonal Coupling coefficients finished.               Storage:  575997 words, CPU-Time:      0.15 seconds.
 Energy denominators for pairs finished in 0 passes.    Storage:  568962 words, CPU-time:      0.00 seconds.

 A level shift of 0.25 is applied.

  ITER. STATE  ROOT     SQ.NORM     CORR.ENERGY   TOTAL ENERGY   ENERGY CHANGE       DEN1      VAR(S)    VAR(P)      TIME
    1     1     1     1.03110520    -0.00777630  -183.82671612    -0.00777630    -0.28916434  0.31D-01  0.42D-01     7.04
    2     1     1     1.07763580    -0.31700596  -184.13594578    -0.30922966    -0.00275094  0.38D-03  0.18D-03    11.41
    3     1     1     1.07918266    -0.31944916  -184.13838898    -0.00244320    -0.00145731  0.15D-04  0.30D-05    15.75
    4     1     1     1.07943871    -0.31957361  -184.13851343    -0.00012445    -0.00007784  0.69D-06  0.13D-06    20.03
    5     1     1     1.07949562    -0.31959059  -184.13853042    -0.00001698    -0.00004047  0.43D-07  0.66D-08    24.29
    6     1     1     1.07950548    -0.31959322  -184.13853304    -0.00000263    -0.00000359  0.30D-08  0.41D-09    28.49
    7     1     1     1.07950817    -0.31959391  -184.13853373    -0.00000069    -0.00000173  0.24D-09  0.29D-10    32.67
    8     1     1     1.07950872    -0.31959404  -184.13853386    -0.00000013    -0.00000020  0.20D-10  0.22D-11    36.84
    9     1     1     1.07950888    -0.31959408  -184.13853390    -0.00000004    -0.00000010  0.18D-11  0.19D-12    41.06
   10     1     1     1.07950892    -0.31959409  -184.13853391    -0.00000001    -0.00000001  0.17D-12  0.16D-13    45.29
   11     1     1     1.07950893    -0.31959409  -184.13853391    -0.00000000    -0.00000001  0.17D-13  0.15D-14    49.46

 Energies without level shift correction:

   11     1     1     1.07950893    -0.29971686  -184.11865668

 Energy contributions for state 1.1:
 ===================================

            Energy contr.      SQ.Norm of FOWF
 Space I     -0.00647729          0.00327186
 Space S     -0.10919794          0.03406131
 Space P     -0.18404163          0.04217577


 =====================================
 Analysis of CPU times by interactions
 =====================================

       I      S      P

 I   2.4%
 S  12.7%  22.9%
 P   1.0%  45.0%   0.4%

 Initialization:  10.0%
 Other:            5.6%

 Total CPU:       49.5 seconds
 =====================================


 Initialize record     7000.1
 Now solve CP-CASPT2 equations

 A level shift of 0.25 is applied.

  ITER. STATE  ROOT     SQ.NORM     CORR.ENERGY   TOTAL ENERGY   ENERGY CHANGE       DEN1      VAR(S)    VAR(P)      TIME
    1     1     1     1.04648161    -0.01809769  -183.83703751    -0.01809769    -0.36902614  0.43D-01  0.54D-01    60.16
    2     1     1     1.10457271    -0.40871197  -184.22765180    -0.39061429    -0.00438037  0.56D-03  0.26D-03    64.49
    3     1     1     1.10698398    -0.41225235  -184.23119217    -0.00354037    -0.00204939  0.23D-04  0.46D-05    68.78
    4     1     1     1.10737132    -0.41243952  -184.23137934    -0.00018718    -0.00012896  0.11D-05  0.21D-06    73.05
    5     1     1     1.10746140    -0.41246629  -184.23140612    -0.00002677    -0.00005939  0.68D-07  0.10D-07    77.28
    6     1     1     1.10747725    -0.41247050  -184.23141033    -0.00000421    -0.00000604  0.48D-08  0.66D-09    81.49
    7     1     1     1.10748160    -0.41247161  -184.23141143    -0.00000111    -0.00000262  0.38D-09  0.47D-10    85.67
    8     1     1     1.10748247    -0.41247183  -184.23141165    -0.00000022    -0.00000034  0.32D-10  0.36D-11    89.88
    9     1     1     1.10748273    -0.41247190  -184.23141172    -0.00000007    -0.00000015  0.29D-11  0.31D-12    94.09
   10     1     1     1.10748280    -0.41247191  -184.23141173    -0.00000001    -0.00000002  0.28D-12  0.27D-13    98.27
   11     1     1     1.10748282    -0.41247192  -184.23141174    -0.00000000    -0.00000001  0.28D-13  0.25D-14   102.47
   12     1     1     1.10748282    -0.41247192  -184.23141174    -0.00000000    -0.00000000  0.29D-14  0.25D-15   106.65

 Energies without level shift correction:

   12     1     1     1.10748282    -0.38560121  -184.20454103

 Energy contributions for state 1.1:
 ===================================

            Energy contr.      SQ.Norm of FOWF
 Space I     -0.01018321          0.00530901
 Space S     -0.14643397          0.04794779
 Space P     -0.22898402          0.05422602


 =====================================
 Analysis of CPU times by interactions
 =====================================

       I      S      P

 I   1.1%
 S  12.1%  22.3%
 P   0.5%  43.8%   0.3%

 Initialization:  48.9%
 Other:          -28.9%

 Total CPU:      106.7 seconds
 =====================================



 Reference coefficients greater than 0.0500000
 =============================================
 222222000220           0.9453142
 222222000202          -0.1273063
 22222/\002/\           0.1216795
 222220200220          -0.1187510
 2222/20\0/2\          -0.0702100
 222202020220          -0.0699465
 222/2200\2/\          -0.0559953
 222202/\0220          -0.0549251
 22222//002\\           0.0544482



 RESULTS FOR STATE 1.1
 =====================

 Coefficient of reference function:   C(0) = 1.00000000 (fixed)   1.00000000 (relaxed)

 Energy contributions of configuration classes

 CLASS          SQ.NORM        ECORR1        ECORR2
 +++++++++++++++++++++++++++++++++++++++++++++++++++
 Internals    0.00530901   -0.00810272    0.26620495
 Singles      0.04794779   -0.12626990   -0.22602250
 Pairs        0.05422602   -0.20509869   -0.35977655
 Total        1.10748282   -0.33947132   -0.31959409
 +++++++++++++++++++++++++++++++++++++++++++++++++++


 Reference energy                    -183.81893982
 Nuclear energy                        51.82298786
 Kinetic energy                       183.63704797
 One electron energy                 -353.15342727
 Two electron energy                  117.19190549
 Virial quotient                       -1.00273085
 Correlation energy                    -0.31959409
 !RSPT2 STATE 1.1 Energy             -184.138533912220

 Properties without orbital relaxation:

 !RSPT2 STATE 1.1 Dipole moment        -0.76906645    -0.13530226     0.00000000
 Dipole moment /Debye                  -1.95464391    -0.34388153     0.00000000


 **********************************************************************************************************************************

1PROGRAM * MULTI (Direct Multiconfiguration SCF)       Authors: P.J. Knowles, H.-J. Werner (1984)     S.T. Elbert (1988)


 Number of closed-shell orbitals:   5 (   5   0 )
 Number of active  orbitals:       10 (   7   3 )
 Number of external orbitals:      54 (  36  18 )

 State symmetry 1

 Number of electrons:    12    Spin symmetry=Singlet   Space symmetry=1
 Number of states:        1
 Number of CSFs:       7028
 
 Maximum number of shells:             7
 Maximum number of spin couplings:   132

 Storage for configuration lists   24068, coupling coefficients 301503, address lists 255468

 Molecular orbitals read from record     2140.2  Type=MCSCF/NATURAL (state 1.1)

 Wavefunction dump at record             3140.4

 Convergence thresholds  0.10E-04 (gradient)  0.10E-07 (energy)  0.10E-02 (step length)

 Eigenvalues of redundancy matrix
   1- 10   -0.000000   -0.000000   -0.000000   -0.000000   -0.000000   -0.000000   -0.000000   -0.000000   -0.000000   -0.000000
  11- 20   -0.000000   -0.000000    0.000000    0.000000    0.000000    0.000000    0.000000    0.000000    0.000000    0.000000
  21- 24    0.000000    0.000000    0.000000    0.000000

 Number of orbital rotations:      521   (    35 Core/Active    180 Core/Virtual   0 Active/Active    306 Active/Virtual)
 Total number of variables:       7549


 ITER. MIC  NCI  NEG     ENERGY(VAR)     ENERGY(PROJ)   ENERGY CHANGE     GRAD(0)  GRAD(ORB)   GRAD(CI)     STEP       TIME

   1   40   21    0    -183.81893982    -183.81893982    0.00000000    0.00000146 0.00000000 0.00000015  0.00D+00      0.71

 Warning: orbitals not optimized!

 Solving MCSCF z-vector equations for state  1.1, requested accuracy=      0.10D-05
 Convergence reached in  24 iterations ( 24 expansion vectors), accuracy=  0.68D-06

 Properties including orbital relaxation:

 !RSPT2 dipole moments (ED):           -0.82994748    -0.12070859     0.00000000

 RSPT2 Gradient info saved on record         5200.1

 CPU-time for rhs:           18.30 sec
 CPU-time for cpmcscf:        2.12 sec
 CPU-time for densities:      0.00 sec


 **********************************************************************************************************************************
 DATASETS  * FILE   NREC   LENGTH (MB)   RECORD NAMES
              1      25       97.21       500      610      700      900      950      970     1000      129      960     1100   
                                          VAR    BASINP    GEOM    SYMINP    ZMAT    AOBASIS   BASIS     P2S    ABASIS      S 
                                         1400     1410     1200     1210     1080     1600     1650     1700     1380     7000   
                                           T        V       H0       H01     AOSYM     SMH    MOLCAS    OPER     JKOP   
                                         7001     5200     5210     7009     7005   
                                                 RS2GRAD  RS2GRAD    

              2       5        0.69       700     1000      520     2100     2140   
                                         GEOM     BASIS   MCVARS     RHF     MCSCF   

 PROGRAMS   *        TOTAL       RS2     MULTI        HF       INT
 CPU TIMES  *       148.51    140.75      7.24      0.07      0.34
 REAL TIME  *       153.31 SEC
 DISK USED  *       177.60 MB      
 SF USED    *       351.77 MB      
 GA USED    *         0.00 MB       (max)       0.00 MB       (current)
 **********************************************************************************************************************************


 PROGRAM * HESSIAN

 Computing numerical hessian using default procedure for command RS2

 Symmetry elements for unique displacements: Z  

 Using no symmetry in wavefunction calculations

 Running default procedure: MULTI000  RS2
 

 Recomputing wavefunction at reference geometry


 Recomputing integrals since symmetry changed


 Using spherical harmonics

 Library entry N      S aug-cc-pVDZ          selected for orbital group  1
 Library entry N      P aug-cc-pVDZ          selected for orbital group  1
 Library entry N      D aug-cc-pVDZ          selected for orbital group  1
 Library entry O      S aug-cc-pVDZ          selected for orbital group  2
 Library entry O      P aug-cc-pVDZ          selected for orbital group  2
 Library entry O      D aug-cc-pVDZ          selected for orbital group  2

1PROGRAM * SEWARD (Integral evaluation for generally contracted gaussian basis sets)     Author: Roland Lindh, 1990

 Geometry written to block  1 of record 701


 Point group  C1  



 ATOMIC COORDINATES

 NR  ATOM    CHARGE       X              Y              Z

   1  N       7.00   -0.494675977   -0.540501335    0.000000000
   2  N       7.00   -2.446832666    0.330398754    0.000000000
   3  O       8.00    2.575206047    0.183938755    0.000000000

 Bond lengths in Bohr (Angstrom)

 1-2  2.137611448  1-3  3.154201815
     ( 1.131175264)     ( 1.669131719)

 Bond angles

  2-1-3  142.67938169

 NUCLEAR CHARGE:                   22
 NUMBER OF PRIMITIVE AOS:         111
 NUMBER OF SYMMETRY AOS:          105
 NUMBER OF CONTRACTIONS:           69   (  69A   )
 NUMBER OF CORE ORBITALS:           3   (   3A   )
 NUMBER OF VALENCE ORBITALS:       12   (  12A   )

 SYMMETRY CHANGED: INITIALIZING OCCUPATION


 NUCLEAR REPULSION ENERGY   51.82298786

 EXTRA SYMMETRY OF AOS IN SYMMETRY 1:   1 1 1 1 1 1 2 1 1 2   1 1 2 1 1 2 1 2 1 1   2 1 2 1 1 1 1 1 1 2   1 1 2 1 1 2 1 1 2 1
                                        2 1 1 2 1 2 1 1 1 1   1 1 2 1 1 2 1 1 2 1   1 2 1 2 1 1 2 1 2

 Eigenvalues of metric

         1 0.133E-03 0.570E-03 0.265E-02 0.465E-02 0.104E-01 0.106E-01 0.184E-01 0.325E-01


 Contracted 2-electron integrals neglected if value below      1.0D-11
 AO integral compression algorithm  1   Integral accuracy      1.0D-11

     10.224 MB (compressed) written to integral file ( 33.6%)

     Node minimum: 1.311 MB, node maximum: 1.573 MB


 NUMBER OF SORTED TWO-ELECTRON INTEGRALS:     417795.     BUFFER LENGTH:  32768
 NUMBER OF SEGMENTS:   1  SEGMENT LENGTH:     417795      RECORD LENGTH: 524288

 Memory used in sort:       0.97 MW

 SORT1 READ     4039007. AND WROTE      205388. INTEGRALS IN      1 RECORDS. CPU TIME:     0.04 SEC, REAL TIME:     0.04 SEC
 SORT2 READ     1453812. AND WROTE     2917320. INTEGRALS IN     42 RECORDS. CPU TIME:     0.01 SEC, REAL TIME:     0.02 SEC

 Node minimum:      415725.  Node maximum:      417795. integrals

 OPERATOR DM      FOR CENTER  0  COORDINATES:    0.000000    0.000000    0.000000
1PROGRAM * MULTI (Direct Multiconfiguration SCF)       Authors: P.J. Knowles, H.-J. Werner (1984)     S.T. Elbert (1988)



 Number of closed-shell orbitals:   5 (   5 )
 Number of active  orbitals:       10 (  10 )
 Number of external orbitals:      75 (  54 )

 State symmetry 1

 Number of electrons:    12    Spin symmetry=Singlet   Space symmetry=1
 Number of states:        1
 Number of CSFs:      13860   (44100 determinants, 44100 intermediate states)

 Molecular orbitals read from record     2140.2  Type=MCSCF/NATURAL (state 1.1)
 
 Present basis size:      69
 Previous basis size:     48  21
 Previous occupation:     12   3
 Previous closed-shells:   5   0
 Present occupation:      15
 Present closed-shells:    5
 Wavefunction symmetry:    1   Singlet 

 Orbital overlap <old|new>:  < 1.1| 1.1> = 1.000000   < 2.1| 2.1> = 1.000000   < 3.1| 3.1> = 1.000000   < 4.1| 4.1> = 1.000000
                             < 5.1| 5.1> = 1.000000   < 6.1| 6.1> = 1.000000   < 7.1| 7.1> = 1.000000   < 8.1| 8.1> = 1.000000
                             < 9.1| 9.1> = 1.000000   <10.1|10.1> = 1.000000   <11.1|11.1> = 1.000000   <12.1|12.1> = 1.000000
                             < 1.2|13.1> = 1.000000   < 2.2|14.1> = 1.000000   < 3.2|15.1> = 1.000000

 Wavefunction dump at record             2141.2

 Convergence thresholds  0.10E-04 (gradient)  0.10E-07 (energy)  0.10E-02 (step length)

 Number of orbital rotations:      860   (    50 Core/Active    270 Core/Virtual   0 Active/Active    540 Active/Virtual)
 Total number of variables:      44960


 ITER. MIC  NCI  NEG     ENERGY(VAR)     ENERGY(PROJ)   ENERGY CHANGE     GRAD(0)  GRAD(ORB)   GRAD(CI)     STEP       TIME

   1   39   30    0    -183.81893982    -183.81893982   -0.00000000    0.00000146 0.00000003 0.00000013  0.60D-05      1.07

 ** WVFN ****  CONVERGENCE REACHED, FINAL GRADIENT:  0.49D-07


 First order charge density matrix for state 1.1 saved on record  2141.2 (density set 1)

 Results for state 1.1
 =====================

 !MCSCF STATE 1.1 Energy             -183.818939822106
 Nuclear energy                        51.82298786
 Kinetic energy                       183.40415424
 One electron energy                 -353.38876019
 Two electron energy                  117.74683251
 Virial ratio                           2.00226159

 !MCSCF STATE 1.1 Dipole moment        -0.76589844    -0.13682768     0.00000000
 Dipole moment /Debye                  -1.94659215    -0.34775850     0.00000000


 Natural orbital dump at molpro section  2141.2    (Orbital set 2)



 **********************************************************************************************************************************
 DATASETS  * FILE   NREC   LENGTH (MB)   RECORD NAMES
              1      20       26.47       500      610      700      701      900      950      970     1001      129      960   
                                          VAR    BASINP    GEOM     GEOM    SYMINP    ZMAT    AOBASIS   BASIS     P2S    ABASIS    
                                         1100     1400     1410     1200     1210     1080     1600     1650     1700     1380   
                                           S        T        V       H0       H01     AOSYM     SMH    MOLCAS    OPER     JKOP   

              2       8        1.16       700     1000      520     2100     2140      701     1001     2141   
                                         GEOM     BASIS   MCVARS     RHF     MCSCF    GEOM     BASIS    MCSCF   

 PROGRAMS   *        TOTAL     MULTI       RS2     MULTI        HF       INT
 CPU TIMES  *       150.27      1.75    140.75      7.24      0.07      0.34
 REAL TIME  *       155.34 SEC
 DISK USED  *       722.34 MB      
 SF USED    *       351.77 MB      
 GA USED    *         0.00 MB       (max)       0.00 MB       (current)
 **********************************************************************************************************************************

1PROGRAM * RS2 (Multireference RS Perturbation Theory)     Authors: H.-J. Werner (1993), P. Celani (1998)


 Level shift= 0.25

 Convergence thresholds:  THRVAR = 1.00D-10  THRDEN = 1.00D-08

 Number of optimized states:  1  Roots:   1
 Number of reference states:  1  Roots:   1

 Reference symmetry:                   1   Singlet 
 Number of electrons:                 22
 Maximum number of shells:             7
 Maximum number of spin couplings:   132

 Reference space:     6765 conf    13860 CSFs
 N elec internal:    24795 conf    63360 CSFs
 N-1 el internal:    36100 conf   161700 CSFs
 N-2 el internal:    45948 conf   367224 CSFs

 Number of electrons in valence space:                     16
 Maximum number of open shell orbitals in reference space:  8
 Maximum number of open shell orbitals in internal spaces: 12


 Number of core orbitals:           3 (   3 )
 Number of closed-shell orbitals:   2 (   2 )
 Number of active  orbitals:       10 (  10 )
 Number of external orbitals:      54 (  54 )

 Molecular orbitals read from record     2141.2  Type=MCSCF/NATURAL (state 1.1)

 Coulomb and exchange operators available. No transformation done.

 Number of p-space configurations:   6

 Reference wavefunction optimized for reference space (refopt=1)

 State     Reference Energy 
   1        -183.81893982

 Number of blocks in overlap matrix:     2   Smallest eigenvalue:  0.13D-01
 Number of N-2 electron functions:     144
 Number of N-1 electron functions:  161700

 Number of internal configurations:                63360
 Number of singly external configurations:       8731800
 Number of doubly external configurations:        210276
 Total number of contracted configurations:      9005436
 Total number of uncontracted configurations:  541702260

 Weight factors for SA-density in H0:    1.000000

 FIMAX=  0.34D+00  FXMAX=  0.12D-06  DIAG=  F  F  NOREF=1  NOINT=0  IHPPD=2

 Nuclear energy:                      51.82298786
 Core energy:                       -173.21167620
 Zeroth-order valence energy:        -12.84226396
 Zeroth-order total energy:         -134.23095230
 First-order energy:                 -49.58798752

 Using uncontracted singles

 Diagonal Coupling coefficients finished.               Storage:  609861 words, CPU-Time:      0.00 seconds.
 Energy denominators for pairs finished in 0 passes.    Storage:  590619 words, CPU-time:      0.00 seconds.

 A level shift of 0.25 is applied.

  ITER. STATE  ROOT     SQ.NORM     CORR.ENERGY   TOTAL ENERGY   ENERGY CHANGE       DEN1      VAR(S)    VAR(P)      TIME
    1     1     1     1.03110521    -0.00777630  -183.82671612    -0.00777630    -0.28916435  0.31D-01  0.42D-01    15.72
    2     1     1     1.07763581    -0.31700598  -184.13594580    -0.30922968    -0.00275096  0.38D-03  0.18D-03    25.30
    3     1     1     1.07918267    -0.31944917  -184.13838899    -0.00244319    -0.00145730  0.15D-04  0.30D-05    34.77
    4     1     1     1.07943872    -0.31957362  -184.13851344    -0.00012445    -0.00007784  0.69D-06  0.13D-06    44.16
    5     1     1     1.07949563    -0.31959060  -184.13853042    -0.00001698    -0.00004046  0.43D-07  0.66D-08    53.43
    6     1     1     1.07950549    -0.31959323  -184.13853305    -0.00000263    -0.00000359  0.30D-08  0.41D-09    62.66
    7     1     1     1.07950818    -0.31959392  -184.13853374    -0.00000069    -0.00000173  0.24D-09  0.29D-10    71.83
    8     1     1     1.07950873    -0.31959405  -184.13853387    -0.00000013    -0.00000020  0.20D-10  0.22D-11    81.04
    9     1     1     1.07950889    -0.31959409  -184.13853391    -0.00000004    -0.00000010  0.18D-11  0.19D-12    90.17
   10     1     1     1.07950893    -0.31959410  -184.13853392    -0.00000001    -0.00000001  0.17D-12  0.16D-13    99.30
   11     1     1     1.07950894    -0.31959410  -184.13853392    -0.00000000    -0.00000001  0.17D-13  0.15D-14   108.43

 Energies without level shift correction:

   11     1     1     1.07950894    -0.29971686  -184.11865669

 Energy contributions for state 1.1:
 ===================================

            Energy contr.      SQ.Norm of FOWF
 Space I     -0.00647728          0.00327185
 Space S     -0.10919792          0.03406131
 Space P     -0.18404167          0.04217578


 =====================================
 Analysis of CPU times by interactions
 =====================================

       I      S      P

 I   2.5%
 S  12.5%  16.9%
 P   1.3%  50.2%   0.6%

 Initialization:  10.0%
 Other:            6.0%

 Total CPU:      108.4 seconds
 =====================================


 Initialize record     7000.1
 Now solve CP-CASPT2 equations

 A level shift of 0.25 is applied.

  ITER. STATE  ROOT     SQ.NORM     CORR.ENERGY   TOTAL ENERGY   ENERGY CHANGE       DEN1      VAR(S)    VAR(P)      TIME
    1     1     1     1.04648163    -0.01809768  -183.83703750    -0.01809768    -0.36902617  0.43D-01  0.54D-01   143.65
    2     1     1     1.10457275    -0.40871202  -184.22765184    -0.39061434    -0.00438038  0.56D-03  0.26D-03   153.24
    3     1     1     1.10698400    -0.41225237  -184.23119220    -0.00354036    -0.00204938  0.23D-04  0.46D-05   162.69
    4     1     1     1.10737135    -0.41243955  -184.23137937    -0.00018717    -0.00012896  0.11D-05  0.21D-06   172.06
    5     1     1     1.10746142    -0.41246632  -184.23140614    -0.00002677    -0.00005939  0.68D-07  0.10D-07   181.37
    6     1     1     1.10747727    -0.41247053  -184.23141035    -0.00000421    -0.00000604  0.48D-08  0.66D-09   190.71
    7     1     1     1.10748162    -0.41247164  -184.23141146    -0.00000111    -0.00000262  0.38D-09  0.47D-10   199.97
    8     1     1     1.10748250    -0.41247186  -184.23141168    -0.00000022    -0.00000034  0.32D-10  0.36D-11   209.13
    9     1     1     1.10748276    -0.41247192  -184.23141175    -0.00000007    -0.00000015  0.29D-11  0.31D-12   218.29
   10     1     1     1.10748282    -0.41247194  -184.23141176    -0.00000001    -0.00000002  0.28D-12  0.27D-13   227.42
   11     1     1     1.10748284    -0.41247194  -184.23141176    -0.00000000    -0.00000001  0.28D-13  0.25D-14   236.56
   12     1     1     1.10748285    -0.41247194  -184.23141176    -0.00000000    -0.00000000  0.29D-14  0.25D-15   245.68

 Energies without level shift correction:

   12     1     1     1.10748285    -0.38560123  -184.20454105

 Energy contributions for state 1.1:
 ===================================

            Energy contr.      SQ.Norm of FOWF
 Space I     -0.01018320          0.00530901
 Space S     -0.14643396          0.04794780
 Space P     -0.22898407          0.05422604


 =====================================
 Analysis of CPU times by interactions
 =====================================

       I      S      P

 I   1.1%
 S  11.3%  15.8%
 P   0.6%  46.5%   0.5%

 Initialization:  51.2%
 Other:          -27.0%

 Total CPU:      245.7 seconds
 =====================================



 Reference coefficients greater than 0.0500000
 =============================================
 222222220000           0.9453141
 222222022000          -0.1273064
 222222200200          -0.1187512
 222222/\/\00          -0.1079937
 222222//\\00          -0.0781531
 222220220020          -0.0699469
 222/2/22\0\0           0.0563100
 222220220/\0          -0.0549250
 2222/2\2/00\           0.0530560



 RESULTS FOR STATE 1.1
 =====================

 Coefficient of reference function:   C(0) = 1.00000000 (fixed)   1.00000000 (relaxed)

 Energy contributions of configuration classes

 CLASS          SQ.NORM        ECORR1        ECORR2
 +++++++++++++++++++++++++++++++++++++++++++++++++++
 Internals    0.00530901   -0.00810271    0.26620498
 Singles      0.04794780   -0.12626989   -0.22602246
 Pairs        0.05422604   -0.20509873   -0.35977661
 Total        1.10748285   -0.33947133   -0.31959410
 +++++++++++++++++++++++++++++++++++++++++++++++++++


 Reference energy                    -183.81893982
 Nuclear energy                        51.82298786
 Kinetic energy                       183.63704768
 One electron energy                 -353.15342671
 Two electron energy                  117.19190492
 Virial quotient                       -1.00273086
 Correlation energy                    -0.31959410
 !RSPT2 STATE 1.1 Energy             -184.138533921121

 Properties without orbital relaxation:

 !RSPT2 STATE 1.1 Dipole moment        -0.76906782    -0.13530245     0.00000000
 Dipole moment /Debye                  -1.95464740    -0.34388201     0.00000000


 **********************************************************************************************************************************

1PROGRAM * MULTI (Direct Multiconfiguration SCF)       Authors: P.J. Knowles, H.-J. Werner (1984)     S.T. Elbert (1988)


 Number of closed-shell orbitals:   5 (   5 )
 Number of active  orbitals:       10 (  10 )
 Number of external orbitals:      75 (  54 )

 State symmetry 1

 Number of electrons:    12    Spin symmetry=Singlet   Space symmetry=1
 Number of states:        1
 Number of CSFs:      13860
 
 Maximum number of shells:             7
 Maximum number of spin couplings:   132

 Storage for configuration lists   24068, coupling coefficients 301503, address lists 324180

 Molecular orbitals read from record     2141.2  Type=MCSCF/NATURAL (state 1.1)

 Wavefunction dump at record             3140.4

 Convergence thresholds  0.10E-04 (gradient)  0.10E-07 (energy)  0.10E-02 (step length)

 Eigenvalues of redundancy matrix
   1- 10   -0.000000   -0.000000   -0.000000   -0.000000   -0.000000   -0.000000   -0.000000   -0.000000   -0.000000   -0.000000
  11- 20   -0.000000   -0.000000   -0.000000   -0.000000   -0.000000   -0.000000    0.000000    0.000000    0.000000    0.000000
  21- 30    0.000000    0.000000    0.000000    0.000000    0.000000    0.000000    0.000000    0.000000    0.000000    0.000000
  31- 40    0.000000    0.000000    0.000000    0.000000    0.000000    0.000000    0.000000    0.000000    0.000000    0.000000
  41- 45    0.000000    0.000000    0.000000    0.000000    0.000000

 Number of orbital rotations:      860   (    50 Core/Active    270 Core/Virtual   0 Active/Active    540 Active/Virtual)
 Total number of variables:      14720


 ITER. MIC  NCI  NEG     ENERGY(VAR)     ENERGY(PROJ)   ENERGY CHANGE     GRAD(0)  GRAD(ORB)   GRAD(CI)     STEP       TIME

   1   39   21    0    -183.81893982    -183.81893982    0.00000000    0.00000005 0.00000000 0.00000015  0.00D+00      1.53

 Warning: orbitals not optimized!

 Solving MCSCF z-vector equations for state  1.1, requested accuracy=      0.10D-05
 Convergence reached in  24 iterations ( 24 expansion vectors), accuracy=  0.68D-06

 Properties including orbital relaxation:

 !RSPT2 dipole moments (ED):           -0.82994783    -0.12070895    -0.00000000

 RSPT2 Gradient info saved on record         5200.1

 CPU-time for rhs:           79.42 sec
 CPU-time for cpmcscf:        6.63 sec
 CPU-time for densities:      0.01 sec


 **********************************************************************************************************************************
 DATASETS  * FILE   NREC   LENGTH (MB)   RECORD NAMES
              1      26      174.24       500      610      700      701      900      950      970     1001      129      960   
                                          VAR    BASINP    GEOM     GEOM    SYMINP    ZMAT    AOBASIS   BASIS     P2S    ABASIS    
                                         1100     1400     1410     1200     1210     1080     1600     1650     1700     1380   
                                           S        T        V       H0       H01     AOSYM     SMH    MOLCAS    OPER     JKOP   
                                         7000     7001     5200     5210     7009     7005   
                                                          RS2GRAD  RS2GRAD    

              2       8        1.16       700     1000      520     2100     2140      701     1001     2141   
                                         GEOM     BASIS   MCVARS     RHF     MCSCF    GEOM     BASIS    MCSCF   

 PROGRAMS   *        TOTAL       RS2       RS2     MULTI        HF       INT
 CPU TIMES  *       524.99    374.71    140.75      7.24      0.07      0.34
 REAL TIME  *       535.52 SEC
 DISK USED  *       722.34 MB      
 SF USED    *       696.42 MB      
 GA USED    *         0.00 MB       (max)       0.00 MB       (current)
 **********************************************************************************************************************************

 Numerically approximating hessian using central gradient differences
 Task   1   Incrementing variable GX1   by   0.010 AU
 Task   2   Incrementing variable GX1   by  -0.010 AU
 Task   3   Incrementing variable GY1   by   0.010 AU
 Task   4   Incrementing variable GY1   by  -0.010 AU
 Task   5   Incrementing variable GZ1   by   0.010 AU (Skipping negative increment due to symmetry).
 Task   6   Incrementing variable GX2   by   0.010 AU
 Task   7   Incrementing variable GX2   by  -0.010 AU
 Task   8   Incrementing variable GY2   by   0.010 AU
 Task   9   Incrementing variable GY2   by  -0.010 AU
 Task  10   Incrementing variable GZ2   by   0.010 AU (Skipping negative increment due to symmetry).
 Task  11   Incrementing variable GX3   by   0.010 AU
 Task  12   Incrementing variable GX3   by  -0.010 AU
 Task  13   Incrementing variable GY3   by   0.010 AU
 Task  14   Incrementing variable GY3   by  -0.010 AU
 Task  15   Incrementing variable GZ3   by   0.010 AU (Skipping negative increment due to symmetry).

 Task list generated. Total number of displacements:     15

 Starting task   1.  CPU=     0.00 sec, Elapsed=     0.00 sec
 Incrementing variable GX1              by  0.005292 ANG   to   -0.256479 ANG


 Recomputing integrals since geometry changed

1PROGRAM * SEWARD (Integral evaluation for generally contracted gaussian basis sets)     Author: Roland Lindh, 1990

 Geometry written to block  1 of record 701


 Point group  C1  



 ATOMIC COORDINATES

 NR  ATOM    CHARGE       X              Y              Z

   1  N       7.00   -0.484675977   -0.540501335    0.000000000
   2  N       7.00   -2.446832666    0.330398754    0.000000000
   3  O       8.00    2.575206047    0.183938755    0.000000000

 Bond lengths in Bohr (Angstrom)

 1-2  2.146747734  1-3  3.144469979
     ( 1.136009979)     ( 1.663981853)

 Bond angles

  2-1-3  142.74627041

 NUCLEAR CHARGE:                   22
 NUMBER OF PRIMITIVE AOS:         111
 NUMBER OF SYMMETRY AOS:          105
 NUMBER OF CONTRACTIONS:           69   (  69A   )
 NUMBER OF CORE ORBITALS:           3   (   3A   )
 NUMBER OF VALENCE ORBITALS:       12   (  12A   )


 NUCLEAR REPULSION ENERGY   51.78037864

 EXTRA SYMMETRY OF AOS IN SYMMETRY 1:   1 1 1 1 1 1 2 1 1 2   1 1 2 1 1 2 1 2 1 1   2 1 2 1 1 1 1 1 1 2   1 1 2 1 1 2 1 1 2 1
                                        2 1 1 2 1 2 1 1 1 1   1 1 2 1 1 2 1 1 2 1   1 2 1 2 1 1 2 1 2

 Eigenvalues of metric

         1 0.135E-03 0.577E-03 0.263E-02 0.465E-02 0.106E-01 0.108E-01 0.185E-01 0.326E-01


 Contracted 2-electron integrals neglected if value below      1.0D-11
 AO integral compression algorithm  1   Integral accuracy      1.0D-11

     10.224 MB (compressed) written to integral file ( 33.6%)

     Node minimum: 1.311 MB, node maximum: 1.573 MB


 NUMBER OF SORTED TWO-ELECTRON INTEGRALS:     417795.     BUFFER LENGTH:  32768
 NUMBER OF SEGMENTS:   1  SEGMENT LENGTH:     417795      RECORD LENGTH: 524288

 Memory used in sort:       0.97 MW

 SORT1 READ     4039007. AND WROTE      205388. INTEGRALS IN      1 RECORDS. CPU TIME:     0.03 SEC, REAL TIME:     0.04 SEC
 SORT2 READ     1453809. AND WROTE     2917320. INTEGRALS IN     42 RECORDS. CPU TIME:     0.02 SEC, REAL TIME:     0.01 SEC

 Node minimum:      415725.  Node maximum:      417795. integrals

 OPERATOR DM      FOR CENTER  0  COORDINATES:    0.000000    0.000000    0.000000
1PROGRAM * MULTI (Direct Multiconfiguration SCF)       Authors: P.J. Knowles, H.-J. Werner (1984)     S.T. Elbert (1988)



 Number of closed-shell orbitals:   5 (   5 )
 Number of active  orbitals:       10 (  10 )
 Number of external orbitals:      75 (  54 )

 State symmetry 1

 Number of electrons:    12    Spin symmetry=Singlet   Space symmetry=1
 Number of states:        1
 Number of CSFs:      13860   (44100 determinants, 44100 intermediate states)

 Molecular orbitals read from record     2140.2  Type=MCSCF/NATURAL (state 1.1)
 
 Present basis size:      69
 Previous basis size:     48  21
 Previous occupation:     12   3
 Previous closed-shells:   5   0
 Present occupation:      15
 Present closed-shells:    5
 Wavefunction symmetry:    1   Singlet 

 Orbital overlap <old|new>:  < 1.1| 1.1> = 1.000000   < 2.1| 2.1> = 0.999406   < 3.1| 3.1> = 0.999999   < 4.1| 4.1> = 0.999999
                             < 5.1| 5.1> = 1.000000   < 6.1| 6.1> = 0.999996   < 7.1| 7.1> = 0.999969   < 8.1| 8.1> = 0.999984
                             < 9.1| 9.1> = 0.999996   <10.1|10.1> = 0.999992   <11.1|11.1> = 0.999982   <12.1|12.1> = 0.999960
                             < 1.2|13.1> = 1.000000   < 2.2|14.1> = 0.999997   < 3.2|15.1> = 0.999993

 Wavefunction dump at record             2140.1

 Convergence thresholds  0.10E-04 (gradient)  0.10E-07 (energy)  0.10E-02 (step length)

 Number of orbital rotations:      860   (    50 Core/Active    270 Core/Virtual   0 Active/Active    540 Active/Virtual)
 Total number of variables:      44960


 ITER. MIC  NCI  NEG     ENERGY(VAR)     ENERGY(PROJ)   ENERGY CHANGE     GRAD(0)  GRAD(ORB)   GRAD(CI)     STEP       TIME

   1  178   38    0    -183.81095374    -183.81908127   -0.00812753    0.50184575 0.00012266 0.00081931  0.38D-01      1.46
   2   59   48    0    -183.81907773    -183.81907911   -0.00000138    0.00202913 0.00000048 0.00000247  0.18D-02      3.29
   3   39   30    0    -183.81907912    -183.81907912   -0.00000000    0.00000475 0.00000001 0.00000026  0.45D-04      4.44

 ** WVFN ****  CONVERGENCE REACHED, FINAL GRADIENT:  0.46D-07


 First order charge density matrix for state 1.1 saved on record  2140.1 (density set 1)

 Results for state 1.1
 =====================

 !MCSCF STATE 1.1 Energy             -183.819079115465
 Nuclear energy                        51.78037864
 Kinetic energy                       183.37935350
 One electron energy                 -353.30655070
 Two electron energy                  117.70709294
 Virial ratio                           2.00239790

 !MCSCF STATE 1.1 Dipole moment        -0.76848342    -0.13674550    -0.00000000
 Dipole moment /Debye                  -1.95316209    -0.34754963    -0.00000000


 Natural orbital dump at molpro section  2140.1    (Orbital set 2)



 **********************************************************************************************************************************
 DATASETS  * FILE   NREC   LENGTH (MB)   RECORD NAMES
              1      21       26.72       500      610      700      701      900      950      970     1001      129      960   
                                          VAR    BASINP    GEOM     GEOM    SYMINP    ZMAT    AOBASIS   BASIS     P2S    ABASIS    
                                         1100     1400     1410     1200     1210     1080     1600     1650     1700     2140   
                                           S        T        V       H0       H01     AOSYM     SMH    MOLCAS    OPER     MCSCF   
                                         1380   
                                         JKOP   

              2       9        1.19       700     1000      520     2100     2140      701     1001     2141     5500   
                                         GEOM     BASIS   MCVARS     RHF     MCSCF    GEOM     BASIS    MCSCF    HINFO   

 PROGRAMS   *        TOTAL     MULTI       RS2     MULTI        HF       INT
 CPU TIMES  *       530.11      5.12    140.75      7.24      0.07      0.34
 REAL TIME  *       541.28 SEC
 DISK USED  *         1.27 GB      
 SF USED    *       696.42 MB      
 GA USED    *         0.00 MB       (max)       0.00 MB       (current)
 **********************************************************************************************************************************

1PROGRAM * RS2 (Multireference RS Perturbation Theory)     Authors: H.-J. Werner (1993), P. Celani (1998)


 Level shift= 0.25

 Convergence thresholds:  THRVAR = 1.00D-10  THRDEN = 1.00D-08

 Number of optimized states:  1  Roots:   1
 Number of reference states:  1  Roots:   1

 Reference symmetry:                   1   Singlet 
 Number of electrons:                 22
 Maximum number of shells:             7
 Maximum number of spin couplings:   132

 Reference space:     6765 conf    13860 CSFs
 N elec internal:    24795 conf    63360 CSFs
 N-1 el internal:    36100 conf   161700 CSFs
 N-2 el internal:    45948 conf   367224 CSFs

 Number of electrons in valence space:                     16
 Maximum number of open shell orbitals in reference space:  8
 Maximum number of open shell orbitals in internal spaces: 12


 Number of core orbitals:           3 (   3 )
 Number of closed-shell orbitals:   2 (   2 )
 Number of active  orbitals:       10 (  10 )
 Number of external orbitals:      54 (  54 )

 Molecular orbitals read from record     2140.1  Type=MCSCF/NATURAL (state 1.1)

 Coulomb and exchange operators available. No transformation done.

 Number of p-space configurations:   6

 Reference wavefunction optimized for reference space (refopt=1)

 State     Reference Energy 
   1        -183.81907912

 Number of blocks in overlap matrix:     2   Smallest eigenvalue:  0.14D-01
 Number of N-2 electron functions:     144
 Number of N-1 electron functions:  161700

 Number of internal configurations:                63360
 Number of singly external configurations:       8731800
 Number of doubly external configurations:        210276
 Total number of contracted configurations:      9005436
 Total number of uncontracted configurations:  541702260

 Weight factors for SA-density in H0:    1.000000

 FIMAX=  0.34D+00  FXMAX=  0.97D-07  DIAG=  F  F  NOREF=1  NOINT=0  IHPPD=2

 Nuclear energy:                      51.78037864
 Core energy:                       -173.18955606
 Zeroth-order valence energy:        -12.82713224
 Zeroth-order total energy:         -134.23630966
 First-order energy:                 -49.58276945

 Using uncontracted singles

 Diagonal Coupling coefficients finished.               Storage:  610928 words, CPU-Time:      0.39 seconds.
 Energy denominators for pairs finished in 0 passes.    Storage:  591686 words, CPU-time:      0.00 seconds.

 A level shift of 0.25 is applied.

  ITER. STATE  ROOT     SQ.NORM     CORR.ENERGY   TOTAL ENERGY   ENERGY CHANGE       DEN1      VAR(S)    VAR(P)      TIME
    1     1     1     1.03135479    -0.00783870  -183.82691781    -0.00783870    -0.28962930  0.31D-01  0.42D-01    15.99
    2     1     1     1.07791930    -0.31758186  -184.13666097    -0.30974316    -0.00271367  0.39D-03  0.18D-03    26.25
    3     1     1     1.07947193    -0.32003442  -184.13911354    -0.00245256    -0.00146629  0.15D-04  0.30D-05    36.32
    4     1     1     1.07972805    -0.32015909  -184.13923820    -0.00012467    -0.00007791  0.70D-06  0.13D-06    46.37
    5     1     1     1.07978530    -0.32017616  -184.13925528    -0.00001707    -0.00004071  0.43D-07  0.66D-08    56.30
    6     1     1     1.07979521    -0.32017880  -184.13925792    -0.00000264    -0.00000362  0.30D-08  0.41D-09    66.14
    7     1     1     1.07979792    -0.32017949  -184.13925861    -0.00000069    -0.00000174  0.24D-09  0.29D-10    75.92
    8     1     1     1.07979847    -0.32017962  -184.13925874    -0.00000013    -0.00000020  0.20D-10  0.22D-11    85.67
    9     1     1     1.07979863    -0.32017967  -184.13925878    -0.00000004    -0.00000010  0.18D-11  0.18D-12    95.41
   10     1     1     1.07979867    -0.32017967  -184.13925879    -0.00000001    -0.00000001  0.17D-12  0.16D-13   105.12
   11     1     1     1.07979868    -0.32017967  -184.13925879    -0.00000000    -0.00000001  0.17D-13  0.15D-14   114.85

 Energies without level shift correction:

   11     1     1     1.07979868    -0.30023000  -184.11930912

 Energy contributions for state 1.1:
 ===================================

            Energy contr.      SQ.Norm of FOWF
 Space I     -0.00656725          0.00332915
 Space S     -0.10974340          0.03431154
 Space P     -0.18391935          0.04215799


 =====================================
 Analysis of CPU times by interactions
 =====================================

       I      S      P

 I   2.4%
 S  11.9%  20.0%
 P   1.2%  48.1%   0.7%

 Initialization:   9.7%
 Other:            6.0%

 Total CPU:      114.9 seconds
 =====================================


 Initialize record     7000.1
 Now solve CP-CASPT2 equations

 A level shift of 0.25 is applied.

  ITER. STATE  ROOT     SQ.NORM     CORR.ENERGY   TOTAL ENERGY   ENERGY CHANGE       DEN1      VAR(S)    VAR(P)      TIME
    1     1     1     1.04692110    -0.01829753  -183.83737664    -0.01829753    -0.36975463  0.44D-01  0.54D-01   149.52
    2     1     1     1.10503929    -0.40965710  -184.22873621    -0.39135957    -0.00434230  0.57D-03  0.26D-03   159.81
    3     1     1     1.10746424    -0.41321644  -184.23229556    -0.00355935    -0.00206447  0.23D-04  0.46D-05   169.89
    4     1     1     1.10785271    -0.41340439  -184.23248351    -0.00018795    -0.00012953  0.11D-05  0.21D-06   179.87
    5     1     1     1.10794356    -0.41343138  -184.23251049    -0.00002698    -0.00005987  0.69D-07  0.10D-07   189.82
    6     1     1     1.10795954    -0.41343562  -184.23251474    -0.00000424    -0.00000610  0.49D-08  0.66D-09   199.72
    7     1     1     1.10796393    -0.41343674  -184.23251585    -0.00000112    -0.00000264  0.38D-09  0.47D-10   209.59
    8     1     1     1.10796482    -0.41343696  -184.23251608    -0.00000022    -0.00000034  0.32D-10  0.36D-11   219.37
    9     1     1     1.10796508    -0.41343703  -184.23251614    -0.00000007    -0.00000015  0.29D-11  0.30D-12   229.08
   10     1     1     1.10796515    -0.41343704  -184.23251616    -0.00000001    -0.00000002  0.28D-12  0.26D-13   238.81
   11     1     1     1.10796517    -0.41343704  -184.23251616    -0.00000000    -0.00000001  0.27D-13  0.25D-14   248.53
   12     1     1     1.10796517    -0.41343704  -184.23251616    -0.00000000    -0.00000000  0.28D-14  0.25D-15   258.23

 Energies without level shift correction:

   12     1     1     1.10796517    -0.38644575  -184.20552487

 Energy contributions for state 1.1:
 ===================================

            Energy contr.      SQ.Norm of FOWF
 Space I     -0.01033981          0.00541008
 Space S     -0.14726248          0.04834680
 Space P     -0.22884347          0.05420830


 =====================================
 Analysis of CPU times by interactions
 =====================================

       I      S      P

 I   1.1%
 S  10.8%  18.8%
 P   0.5%  44.8%   0.7%

 Initialization:  51.0%
 Other:          -27.7%

 Total CPU:      258.2 seconds
 =====================================



 Reference coefficients greater than 0.0500000
 =============================================
 222222220000           0.9445060
 222222022000          -0.1281840
 222222200200          -0.1196360
 222222/\/\00          -0.1087720
 222222//\\00          -0.0782786
 222220220020          -0.0695545
 222/2/22\0\0           0.0573285
 222220220/\0          -0.0553078
 2222/2\2/00\           0.0531570



 RESULTS FOR STATE 1.1
 =====================

 Coefficient of reference function:   C(0) = 1.00000000 (fixed)   1.00000000 (relaxed)

 Energy contributions of configuration classes

 CLASS          SQ.NORM        ECORR1        ECORR2
 +++++++++++++++++++++++++++++++++++++++++++++++++++
 Internals    0.00541008   -0.00822131    0.26642707
 Singles      0.04834680   -0.12694089   -0.22718414
 Pairs        0.05420830   -0.20496714   -0.35942261
 Total        1.10796517   -0.34012934   -0.32017967
 +++++++++++++++++++++++++++++++++++++++++++++++++++


 Reference energy                    -183.81907912
 Nuclear energy                        51.78037864
 Kinetic energy                       183.61407313
 One electron energy                 -353.07252099
 Two electron energy                  117.15288355
 Virial quotient                       -1.00286027
 Correlation energy                    -0.32017967
 !RSPT2 STATE 1.1 Energy             -184.139258790440

 Properties without orbital relaxation:

 !RSPT2 STATE 1.1 Dipole moment        -0.77120442    -0.13512413    -0.00000000
 Dipole moment /Debye                  -1.96007773    -0.34342878    -0.00000000


 **********************************************************************************************************************************

1PROGRAM * MULTI (Direct Multiconfiguration SCF)       Authors: P.J. Knowles, H.-J. Werner (1984)     S.T. Elbert (1988)


 Number of closed-shell orbitals:   5 (   5 )
 Number of active  orbitals:       10 (  10 )
 Number of external orbitals:      75 (  54 )

 State symmetry 1

 Number of electrons:    12    Spin symmetry=Singlet   Space symmetry=1
 Number of states:        1
 Number of CSFs:      13860
 
 Maximum number of shells:             7
 Maximum number of spin couplings:   132

 Storage for configuration lists   24068, coupling coefficients 301503, address lists 324180

 Molecular orbitals read from record     2140.1  Type=MCSCF/NATURAL (state 1.1)

 Wavefunction dump at record             3140.1

 Convergence thresholds  0.10E-04 (gradient)  0.10E-07 (energy)  0.10E-02 (step length)

 Eigenvalues of redundancy matrix
   1- 10   -0.000000   -0.000000   -0.000000   -0.000000   -0.000000   -0.000000   -0.000000   -0.000000   -0.000000   -0.000000
  11- 20   -0.000000   -0.000000   -0.000000   -0.000000   -0.000000   -0.000000    0.000000    0.000000    0.000000    0.000000
  21- 30    0.000000    0.000000    0.000000    0.000000    0.000000    0.000000    0.000000    0.000000    0.000000    0.000000
  31- 40    0.000000    0.000000    0.000000    0.000000    0.000000    0.000000    0.000000    0.000000    0.000000    0.000000
  41- 45    0.000000    0.000000    0.000000    0.000000    0.000000

 Number of orbital rotations:      860   (    50 Core/Active    270 Core/Virtual   0 Active/Active    540 Active/Virtual)
 Total number of variables:      14720


 ITER. MIC  NCI  NEG     ENERGY(VAR)     ENERGY(PROJ)   ENERGY CHANGE     GRAD(0)  GRAD(ORB)   GRAD(CI)     STEP       TIME

   1   39   22    0    -183.81907912    -183.81907912    0.00000000    0.00000005 0.00000000 0.00000008  0.00D+00      1.59

 Warning: orbitals not optimized!

 Solving MCSCF z-vector equations for state  1.1, requested accuracy=      0.10D-05
 Convergence reached in  24 iterations ( 24 expansion vectors), accuracy=  0.71D-06

 Properties including orbital relaxation:

 !RSPT2 dipole moments (ED):           -0.82883374    -0.11921297     0.00000000

 RSPT2 Gradient info saved on record         5200.1

 CPU-time for rhs:           79.49 sec
 CPU-time for cpmcscf:        6.55 sec
 CPU-time for densities:      0.01 sec


 **********************************************************************************************************************************
 DATASETS  * FILE   NREC   LENGTH (MB)   RECORD NAMES
              1      28      174.73       500      610      700      701      900      950      970     1001      129      960   
                                          VAR    BASINP    GEOM     GEOM    SYMINP    ZMAT    AOBASIS   BASIS     P2S    ABASIS    
                                         1100     1400     1410     1200     1210     1080     1600     1650     1700     2140   
                                           S        T        V       H0       H01     AOSYM     SMH    MOLCAS    OPER     MCSCF   
                                         1380     7000     7001     5200     5210     3140     7009     7005   
                                         JKOP                      RS2GRAD  RS2GRAD   MCSCF   

              2       9        1.19       700     1000      520     2100     2140      701     1001     2141     5500   
                                         GEOM     BASIS   MCVARS     RHF     MCSCF    GEOM     BASIS    MCSCF    HINFO   

 PROGRAMS   *        TOTAL       RS2       RS2     MULTI        HF       INT
 CPU TIMES  *       916.84    386.72    140.75      7.24      0.07      0.34
 REAL TIME  *       933.25 SEC
 DISK USED  *         1.27 GB      
 SF USED    *       696.50 MB      
 GA USED    *         0.00 MB       (max)       0.00 MB       (current)
 **********************************************************************************************************************************
1PROGRAM * ALASKA (Gradient of the energy)     Author: R. Lindh


 RSPT2 Gradient info restored from record    5200.1

 Number of core orbitals:           3 (   3 )
 Number of closed-shell orbitals:   2 (   2 )
 Number of active  orbitals:       10 (  10 )
 Number of external orbitals:      54 (  54 )

 Integral thresholds in T2TRAN:            1.0D-10 (PROD)

 Available memory for Transformation: 997824605 words
 Memory needed for incore algorithm:     778533 words
 Minimum memory needed:                  291669 words

 Memory used for transformation:           0.78 MW
 Available memory for gradients:         999.05 MW

 CPU for transformation:                   0.04 sec
 CPU for integrals and gradient:           1.30 sec
 Total CPU:                                1.34 sec

 Prescreening statistics:
 ========================

 Total number of shell quadruplets:        9.00D+01
 Number of shell quadruplets processed:    9.00D+01 (100.00%)

 RSPT2 GRADIENT FOR STATE 1.1

 Atom          dE/dx               dE/dy               dE/dz

   1        -0.068456092        -0.051499784         0.000000000
   2        -0.009381363         0.021776965        -0.000000000
   3         0.077837456         0.029722819         0.000000000

 Nuclear force contribution to virial =         0.297079098
 Starting task   2.  CPU=   401.15 sec, Elapsed=   401.09 sec
 Incrementing variable GX1              by -0.005292 ANG   to   -0.267063 ANG


 Recomputing integrals since geometry changed

1PROGRAM * SEWARD (Integral evaluation for generally contracted gaussian basis sets)     Author: Roland Lindh, 1990

 Geometry written to block  1 of record 701


 Point group  C1  



 ATOMIC COORDINATES

 NR  ATOM    CHARGE       X              Y              Z

   1  N       7.00   -0.504675977   -0.540501335    0.000000000
   2  N       7.00   -2.446832666    0.330398754    0.000000000
   3  O       8.00    2.575206047    0.183938755    0.000000000

 Bond lengths in Bohr (Angstrom)

 1-2  2.128482926  1-3  3.163935323
     ( 1.126344658)     ( 1.674282470)

 Bond angles

  2-1-3  142.61130240

 NUCLEAR CHARGE:                   22
 NUMBER OF PRIMITIVE AOS:         111
 NUMBER OF SYMMETRY AOS:          105
 NUMBER OF CONTRACTIONS:           69   (  69A   )
 NUMBER OF CORE ORBITALS:           3   (   3A   )
 NUMBER OF VALENCE ORBITALS:       12   (  12A   )


 NUCLEAR REPULSION ENERGY   51.86667926

 EXTRA SYMMETRY OF AOS IN SYMMETRY 1:   1 1 1 1 1 1 2 1 1 2   1 1 2 1 1 2 1 2 1 1   2 1 2 1 1 1 1 1 1 2   1 1 2 1 1 2 1 1 2 1
                                        2 1 1 2 1 2 1 1 1 1   1 1 2 1 1 2 1 1 2 1   1 2 1 2 1 1 2 1 2

 Eigenvalues of metric

         1 0.131E-03 0.563E-03 0.268E-02 0.465E-02 0.101E-01 0.105E-01 0.182E-01 0.324E-01


 Contracted 2-electron integrals neglected if value below      1.0D-11
 AO integral compression algorithm  1   Integral accuracy      1.0D-11

     10.748 MB (compressed) written to integral file ( 32.0%)

     Node minimum: 1.311 MB, node maximum: 1.573 MB


 NUMBER OF SORTED TWO-ELECTRON INTEGRALS:     417795.     BUFFER LENGTH:  32768
 NUMBER OF SEGMENTS:   1  SEGMENT LENGTH:     417795      RECORD LENGTH: 524288

 Memory used in sort:       0.97 MW

 SORT1 READ     4039007. AND WROTE      205388. INTEGRALS IN      1 RECORDS. CPU TIME:     0.04 SEC, REAL TIME:     0.04 SEC
 SORT2 READ     1453813. AND WROTE     2917320. INTEGRALS IN     42 RECORDS. CPU TIME:     0.01 SEC, REAL TIME:     0.02 SEC

 Node minimum:      415725.  Node maximum:      417795. integrals

 OPERATOR DM      FOR CENTER  0  COORDINATES:    0.000000    0.000000    0.000000
1PROGRAM * MULTI (Direct Multiconfiguration SCF)       Authors: P.J. Knowles, H.-J. Werner (1984)     S.T. Elbert (1988)



 Number of closed-shell orbitals:   5 (   5 )
 Number of active  orbitals:       10 (  10 )
 Number of external orbitals:      75 (  54 )

 State symmetry 1

 Number of electrons:    12    Spin symmetry=Singlet   Space symmetry=1
 Number of states:        1
 Number of CSFs:      13860   (44100 determinants, 44100 intermediate states)

 Molecular orbitals read from record     2140.2  Type=MCSCF/NATURAL (state 1.1)
 
 Present basis size:      69
 Previous basis size:     48  21
 Previous occupation:     12   3
 Previous closed-shells:   5   0
 Present occupation:      15
 Present closed-shells:    5
 Wavefunction symmetry:    1   Singlet 

 Orbital overlap <old|new>:  < 1.1| 1.1> = 1.000000   < 2.1| 2.1> = 0.999406   < 3.1| 3.1> = 0.999999   < 4.1| 4.1> = 1.000000
                             < 5.1| 5.1> = 1.000000   < 6.1| 6.1> = 0.999996   < 7.1| 7.1> = 0.999969   < 8.1| 8.1> = 0.999983
                             < 9.1| 9.1> = 0.999996   <10.1|10.1> = 0.999992   <11.1|11.1> = 0.999981   <12.1|12.1> = 0.999962
                             < 1.2|13.1> = 1.000000   < 2.2|14.1> = 0.999997   < 3.2|15.1> = 0.999993

 Wavefunction dump at record             2140.1

 Convergence thresholds  0.10E-04 (gradient)  0.10E-07 (energy)  0.10E-02 (step length)

 Number of orbital rotations:      860   (    50 Core/Active    270 Core/Virtual   0 Active/Active    540 Active/Virtual)
 Total number of variables:      44960


 ITER. MIC  NCI  NEG     ENERGY(VAR)     ENERGY(PROJ)   ENERGY CHANGE     GRAD(0)  GRAD(ORB)   GRAD(CI)     STEP       TIME

   1   62   38    0    -183.81050266    -183.81870918   -0.00820652    0.50495447 0.00002292 0.00013922  0.23D-01      1.36
   2   58   42    0    -183.81870818    -183.81870839   -0.00000021    0.00035332 0.00000012 0.00000066  0.20D-02      3.01
   3   38   22    0    -183.81870839    -183.81870839    0.00000000    0.00000025 0.00000001 0.00000009  0.14D-05      3.85

 ** WVFN ****  CONVERGENCE REACHED, FINAL GRADIENT:  0.31D-07


 First order charge density matrix for state 1.1 saved on record  2140.1 (density set 1)

 Results for state 1.1
 =====================

 !MCSCF STATE 1.1 Energy             -183.818708394608
 Nuclear energy                        51.86667926
 Kinetic energy                       183.42949195
 One electron energy                 -353.47286121
 Two electron energy                  117.78747355
 Virial ratio                           2.00212189

 !MCSCF STATE 1.1 Dipole moment        -0.76301763    -0.13683960    -0.00000000
 Dipole moment /Debye                  -1.93927036    -0.34778879    -0.00000000


 Natural orbital dump at molpro section  2140.1    (Orbital set 2)



 **********************************************************************************************************************************
 DATASETS  * FILE   NREC   LENGTH (MB)   RECORD NAMES
              1      21       26.72       500      610      700      701      900      950      970     1001      129      960   
                                          VAR    BASINP    GEOM     GEOM    SYMINP    ZMAT    AOBASIS   BASIS     P2S    ABASIS    
                                         1100     1400     1410     1200     1210     1080     1600     1650     1700     2140   
                                           S        T        V       H0       H01     AOSYM     SMH    MOLCAS    OPER     MCSCF   
                                         1380   
                                         JKOP   

              2       9        1.19       700     1000      520     2100     2140      701     1001     2141     5500   
                                         GEOM     BASIS   MCVARS     RHF     MCSCF    GEOM     BASIS    MCSCF    HINFO   

 PROGRAMS   *        TOTAL     MULTI       RS2     MULTI        HF       INT
 CPU TIMES  *       923.52      4.53    140.75      7.24      0.07      0.34
 REAL TIME  *       941.74 SEC
 DISK USED  *         1.27 GB      
 SF USED    *       696.50 MB      
 GA USED    *         0.00 MB       (max)       0.00 MB       (current)
 **********************************************************************************************************************************

1PROGRAM * RS2 (Multireference RS Perturbation Theory)     Authors: H.-J. Werner (1993), P. Celani (1998)


 Level shift= 0.25

 Convergence thresholds:  THRVAR = 1.00D-10  THRDEN = 1.00D-08

 Number of optimized states:  1  Roots:   1
 Number of reference states:  1  Roots:   1

 Reference symmetry:                   1   Singlet 
 Number of electrons:                 22
 Maximum number of shells:             7
 Maximum number of spin couplings:   132

 Reference space:     6765 conf    13860 CSFs
 N elec internal:    24795 conf    63360 CSFs
 N-1 el internal:    36100 conf   161700 CSFs
 N-2 el internal:    45948 conf   367224 CSFs

 Number of electrons in valence space:                     16
 Maximum number of open shell orbitals in reference space:  8
 Maximum number of open shell orbitals in internal spaces: 12


 Number of core orbitals:           3 (   3 )
 Number of closed-shell orbitals:   2 (   2 )
 Number of active  orbitals:       10 (  10 )
 Number of external orbitals:      54 (  54 )

 Molecular orbitals read from record     2140.1  Type=MCSCF/NATURAL (state 1.1)

 Coulomb and exchange operators available. No transformation done.

 Number of p-space configurations:   6

 Reference wavefunction optimized for reference space (refopt=1)

 State     Reference Energy 
   1        -183.81870839

 Number of blocks in overlap matrix:     2   Smallest eigenvalue:  0.13D-01
 Number of N-2 electron functions:     144
 Number of N-1 electron functions:  161700

 Number of internal configurations:                63360
 Number of singly external configurations:       8731800
 Number of doubly external configurations:        210276
 Total number of contracted configurations:      9005436
 Total number of uncontracted configurations:  541702260

 Weight factors for SA-density in H0:    1.000000

 FIMAX=  0.34D+00  FXMAX=  0.15D-06  DIAG=  F  F  NOREF=1  NOINT=0  IHPPD=2

 Nuclear energy:                      51.86667926
 Core energy:                       -173.23433444
 Zeroth-order valence energy:        -12.85743407
 Zeroth-order total energy:         -134.22508925
 First-order energy:                 -49.59361915

 Using uncontracted singles

 Diagonal Coupling coefficients finished.               Storage:  610928 words, CPU-Time:      0.38 seconds.
 Energy denominators for pairs finished in 0 passes.    Storage:  591686 words, CPU-time:      0.00 seconds.

 A level shift of 0.25 is applied.

  ITER. STATE  ROOT     SQ.NORM     CORR.ENERGY   TOTAL ENERGY   ENERGY CHANGE       DEN1      VAR(S)    VAR(P)      TIME
    1     1     1     1.03085862    -0.00771466  -183.82642305    -0.00771466    -0.28870324  0.31D-01  0.42D-01    15.59
    2     1     1     1.07735475    -0.31643588  -184.13514427    -0.30872122    -0.00278622  0.38D-03  0.18D-03    25.26
    3     1     1     1.07889699    -0.31887200  -184.13758039    -0.00243612    -0.00145018  0.15D-04  0.30D-05    34.73
    4     1     1     1.07915316    -0.31899640  -184.13770479    -0.00012440    -0.00007790  0.69D-06  0.13D-06    44.08
    5     1     1     1.07920985    -0.31901333  -184.13772172    -0.00001693    -0.00004031  0.43D-07  0.67D-08    53.44
    6     1     1     1.07921968    -0.31901595  -184.13772434    -0.00000262    -0.00000358  0.30D-08  0.42D-09    62.75
    7     1     1     1.07922236    -0.31901663  -184.13772503    -0.00000068    -0.00000173  0.24D-09  0.29D-10    71.98
    8     1     1     1.07922291    -0.31901677  -184.13772516    -0.00000013    -0.00000020  0.20D-10  0.23D-11    81.22
    9     1     1     1.07922307    -0.31901681  -184.13772520    -0.00000004    -0.00000010  0.18D-11  0.19D-12    90.40
   10     1     1     1.07922311    -0.31901681  -184.13772521    -0.00000001    -0.00000001  0.18D-12  0.17D-13    99.57
   11     1     1     1.07922312    -0.31901682  -184.13772521    -0.00000000    -0.00000001  0.18D-13  0.16D-14   108.72

 Energies without level shift correction:

   11     1     1     1.07922312    -0.29921104  -184.11791943

 Energy contributions for state 1.1:
 ===================================

            Energy contr.      SQ.Norm of FOWF
 Space I     -0.00639120          0.00321623
 Space S     -0.10866162          0.03381524
 Space P     -0.18415822          0.04219165


[...]

 Eigenvalues of metric

         1 0.133E-03 0.570E-03 0.265E-02 0.465E-02 0.104E-01 0.106E-01 0.184E-01 0.325E-01


 Contracted 2-electron integrals neglected if value below      1.0D-11
 AO integral compression algorithm  1   Integral accuracy      1.0D-11

     10.224 MB (compressed) written to integral file ( 33.6%)

     Node minimum: 1.311 MB, node maximum: 1.573 MB


 NUMBER OF SORTED TWO-ELECTRON INTEGRALS:     417795.     BUFFER LENGTH:  32768
 NUMBER OF SEGMENTS:   1  SEGMENT LENGTH:     417795      RECORD LENGTH: 524288

 Memory used in sort:       0.97 MW

 SORT1 READ     4039007. AND WROTE      205388. INTEGRALS IN      1 RECORDS. CPU TIME:     0.03 SEC, REAL TIME:     0.03 SEC
 SORT2 READ     1453812. AND WROTE     2917320. INTEGRALS IN     35 RECORDS. CPU TIME:     0.01 SEC, REAL TIME:     0.01 SEC

 Node minimum:      415725.  Node maximum:      417795. integrals

 OPERATOR DM      FOR CENTER  0  COORDINATES:    0.000000    0.000000    0.000000
1PROGRAM * MULTI (Direct Multiconfiguration SCF)       Authors: P.J. Knowles, H.-J. Werner (1984)     S.T. Elbert (1988)



 Number of closed-shell orbitals:   5 (   5 )
 Number of active  orbitals:       10 (  10 )
 Number of external orbitals:      75 (  54 )

 State symmetry 1

 Number of electrons:    12    Spin symmetry=Singlet   Space symmetry=1
 Number of states:        1
 Number of CSFs:      13860   (44100 determinants, 44100 intermediate states)

 Molecular orbitals read from record     2140.2  Type=MCSCF/NATURAL (state 1.1)
 
 Present basis size:      69
 Previous basis size:     48  21
 Previous occupation:     12   3
 Previous closed-shells:   5   0
 Present occupation:      15
 Present closed-shells:    5
 Wavefunction symmetry:    1   Singlet 

 Orbital overlap <old|new>:  < 1.1| 1.1> = 1.000000   < 2.1| 2.1> = 1.000000   < 3.1| 3.1> = 1.000000   < 4.1| 4.1> = 1.000000
                             < 5.1| 5.1> = 1.000000   < 6.1| 6.1> = 1.000000   < 7.1| 7.1> = 1.000000   < 8.1| 8.1> = 1.000000
                             < 9.1| 9.1> = 1.000000   <10.1|10.1> = 1.000000   <11.1|11.1> = 1.000000   <12.1|12.1> = 1.000000
                             < 1.2|13.1> = 1.000000   < 2.2|14.1> = 1.000000   < 3.2|15.1> = 1.000000

 Wavefunction dump at record             2141.2

 Convergence thresholds  0.10E-04 (gradient)  0.10E-07 (energy)  0.10E-02 (step length)

 Number of orbital rotations:      860   (    50 Core/Active    270 Core/Virtual   0 Active/Active    540 Active/Virtual)
 Total number of variables:      44960


 ITER. MIC  NCI  NEG     ENERGY(VAR)     ENERGY(PROJ)   ENERGY CHANGE     GRAD(0)  GRAD(ORB)   GRAD(CI)     STEP       TIME

   1   39   30    0    -183.81893982    -183.81893982   -0.00000000    0.00000146 0.00000003 0.00000013  0.60D-05      1.09

 ** WVFN ****  CONVERGENCE REACHED, FINAL GRADIENT:  0.49D-07


 First order charge density matrix for state 1.1 saved on record  2141.2 (density set 1)

 Results for state 1.1
 =====================

 !MCSCF STATE 1.1 Energy             -183.818939822106
 Nuclear energy                        51.82298786
 Kinetic energy                       183.40415424
 One electron energy                 -353.38876019
 Two electron energy                  117.74683251
 Virial ratio                           2.00226159

 !MCSCF STATE 1.1 Dipole moment        -0.76589844    -0.13682768     0.00000000
 Dipole moment /Debye                  -1.94659215    -0.34775850     0.00000000


 Natural orbital dump at molpro section  2141.2    (Orbital set 2)



 **********************************************************************************************************************************
 DATASETS  * FILE   NREC   LENGTH (MB)   RECORD NAMES
              1      21       26.69       500      610      700      701      900      702      950      970     1001      129   
                                          VAR    BASINP    GEOM     GEOM    SYMINP    GEOM     ZMAT    AOBASIS   BASIS     P2S  
                                          960     1100     1400     1410     1200     1210     1080     1600     1650     1700   
                                        ABASIS      S        T        V       H0       H01     AOSYM     SMH    MOLCAS    OPER   
                                         1380   
                                         JKOP   

              2      12        1.20       700     1000      520     2100     2140      701     1001     2141     5300     5400   
                                         GEOM     BASIS   MCVARS     RHF     MCSCF    GEOM     BASIS    MCSCF    HESS     FREQ   
                                         5450      702   
                                         NMOD     GEOM   

 PROGRAMS   *        TOTAL     MULTI       RS2     MULTI        HF       INT
 CPU TIMES  *      6335.21      1.73    140.75      7.24      0.07      0.34
 REAL TIME  *      6434.89 SEC
 DISK USED  *         1.30 GB      
 SF USED    *       696.50 MB      
 GA USED    *         0.00 MB       (max)       0.00 MB       (current)
 **********************************************************************************************************************************

1PROGRAM * RS2 (Multireference RS Perturbation Theory)     Authors: H.-J. Werner (1993), P. Celani (1998)


 Level shift= 0.25

 Convergence thresholds:  THRVAR = 1.00D-10  THRDEN = 1.00D-08

 Number of optimized states:  1  Roots:   1
 Number of reference states:  1  Roots:   1

 Reference symmetry:                   1   Singlet 
 Number of electrons:                 22
 Maximum number of shells:             7
 Maximum number of spin couplings:   132

 Reference space:     6765 conf    13860 CSFs
 N elec internal:    24795 conf    63360 CSFs
 N-1 el internal:    36100 conf   161700 CSFs
 N-2 el internal:    45948 conf   367224 CSFs

 Number of electrons in valence space:                     16
 Maximum number of open shell orbitals in reference space:  8
 Maximum number of open shell orbitals in internal spaces: 12


 Number of core orbitals:           3 (   3 )
 Number of closed-shell orbitals:   2 (   2 )
 Number of active  orbitals:       10 (  10 )
 Number of external orbitals:      54 (  54 )

 Molecular orbitals read from record     2141.2  Type=MCSCF/NATURAL (state 1.1)

 Coulomb and exchange operators available. No transformation done.

 Number of p-space configurations:   6

 Reference wavefunction optimized for reference space (refopt=1)

 State     Reference Energy 
   1        -183.81893982

 Number of blocks in overlap matrix:     2   Smallest eigenvalue:  0.13D-01
 Number of N-2 electron functions:     144
 Number of N-1 electron functions:  161700

 Number of internal configurations:                63360
 Number of singly external configurations:       8731800
 Number of doubly external configurations:        210276
 Total number of contracted configurations:      9005436
 Total number of uncontracted configurations:  541702260

 Weight factors for SA-density in H0:    1.000000

 FIMAX=  0.34D+00  FXMAX=  0.12D-06  DIAG=  F  F  NOREF=1  NOINT=0  IHPPD=2

 Nuclear energy:                      51.82298786
 Core energy:                       -173.21167620
 Zeroth-order valence energy:        -12.84226396
 Zeroth-order total energy:         -134.23095230
 First-order energy:                 -49.58798752

 Using uncontracted singles

 Diagonal Coupling coefficients finished.               Storage:  609780 words, CPU-Time:      0.27 seconds.
 Energy denominators for pairs finished in 0 passes.    Storage:  590538 words, CPU-time:      0.00 seconds.

 A level shift of 0.25 is applied.

  ITER. STATE  ROOT     SQ.NORM     CORR.ENERGY   TOTAL ENERGY   ENERGY CHANGE       DEN1      VAR(S)    VAR(P)      TIME
    1     1     1     1.03110521    -0.00777630  -183.82671612    -0.00777630    -0.28916435  0.31D-01  0.42D-01    15.75
    2     1     1     1.07763581    -0.31700598  -184.13594580    -0.30922968    -0.00275096  0.38D-03  0.18D-03    25.36
    3     1     1     1.07918267    -0.31944917  -184.13838899    -0.00244319    -0.00145730  0.15D-04  0.30D-05    34.82
    4     1     1     1.07943872    -0.31957362  -184.13851344    -0.00012445    -0.00007784  0.69D-06  0.13D-06    44.27
    5     1     1     1.07949563    -0.31959060  -184.13853042    -0.00001698    -0.00004046  0.43D-07  0.66D-08    53.54
    6     1     1     1.07950549    -0.31959323  -184.13853305    -0.00000263    -0.00000359  0.30D-08  0.41D-09    62.72
    7     1     1     1.07950818    -0.31959392  -184.13853374    -0.00000069    -0.00000173  0.24D-09  0.29D-10    71.96
    8     1     1     1.07950873    -0.31959405  -184.13853387    -0.00000013    -0.00000020  0.20D-10  0.22D-11    81.19
    9     1     1     1.07950889    -0.31959409  -184.13853391    -0.00000004    -0.00000010  0.18D-11  0.19D-12    90.35
   10     1     1     1.07950893    -0.31959410  -184.13853392    -0.00000001    -0.00000001  0.17D-12  0.16D-13    99.45
   11     1     1     1.07950894    -0.31959410  -184.13853392    -0.00000000    -0.00000001  0.17D-13  0.15D-14   108.61

 Energies without level shift correction:

   11     1     1     1.07950894    -0.29971686  -184.11865669

 Energy contributions for state 1.1:
 ===================================

            Energy contr.      SQ.Norm of FOWF
 Space I     -0.00647728          0.00327185
 Space S     -0.10919792          0.03406131
 Space P     -0.18404167          0.04217578


 =====================================
 Analysis of CPU times by interactions
 =====================================

       I      S      P

 I   2.5%
 S  12.7%  16.6%
 P   1.3%  50.6%   0.4%

 Initialization:  10.0%
 Other:            5.9%

 Total CPU:      108.6 seconds
 =====================================


 Initialize record     7000.1
 Now solve CP-CASPT2 equations

 A level shift of 0.25 is applied.

  ITER. STATE  ROOT     SQ.NORM     CORR.ENERGY   TOTAL ENERGY   ENERGY CHANGE       DEN1      VAR(S)    VAR(P)      TIME
    1     1     1     1.04648163    -0.01809768  -183.83703750    -0.01809768    -0.36902617  0.43D-01  0.54D-01   142.27
    2     1     1     1.10457275    -0.40871202  -184.22765184    -0.39061434    -0.00438038  0.56D-03  0.26D-03   151.80
    3     1     1     1.10698400    -0.41225237  -184.23119220    -0.00354036    -0.00204938  0.23D-04  0.46D-05   161.18
    4     1     1     1.10737135    -0.41243955  -184.23137937    -0.00018717    -0.00012896  0.11D-05  0.21D-06   170.47
    5     1     1     1.10746142    -0.41246632  -184.23140614    -0.00002677    -0.00005939  0.68D-07  0.10D-07   179.72
    6     1     1     1.10747727    -0.41247053  -184.23141035    -0.00000421    -0.00000604  0.48D-08  0.66D-09   189.04
    7     1     1     1.10748162    -0.41247164  -184.23141146    -0.00000111    -0.00000262  0.38D-09  0.47D-10   198.27
    8     1     1     1.10748250    -0.41247186  -184.23141168    -0.00000022    -0.00000034  0.32D-10  0.36D-11   207.54
    9     1     1     1.10748276    -0.41247192  -184.23141175    -0.00000007    -0.00000015  0.29D-11  0.31D-12   216.74
   10     1     1     1.10748282    -0.41247194  -184.23141176    -0.00000001    -0.00000002  0.28D-12  0.27D-13   225.90
   11     1     1     1.10748284    -0.41247194  -184.23141176    -0.00000000    -0.00000001  0.28D-13  0.25D-14   235.11
   12     1     1     1.10748285    -0.41247194  -184.23141176    -0.00000000    -0.00000000  0.29D-14  0.25D-15   244.21

 Energies without level shift correction:

   12     1     1     1.10748285    -0.38560123  -184.20454105

 Energy contributions for state 1.1:
 ===================================

            Energy contr.      SQ.Norm of FOWF
 Space I     -0.01018320          0.00530901
 Space S     -0.14643396          0.04794780
 Space P     -0.22898407          0.05422604


 =====================================
 Analysis of CPU times by interactions
 =====================================

       I      S      P

 I   1.1%
 S  11.6%  15.4%
 P   0.6%  47.3%   0.4%

 Initialization:  50.9%
 Other:          -27.2%

 Total CPU:      244.2 seconds
 =====================================



 Reference coefficients greater than 0.0500000
 =============================================
 222222220000           0.9453141
 222222022000          -0.1273064
 222222200200          -0.1187512
 222222/\/\00          -0.1079937
 222222//\\00          -0.0781531
 222220220020          -0.0699469
 222/2/22\0\0           0.0563100
 222220220/\0          -0.0549250
 2222/2\2/00\           0.0530560



 RESULTS FOR STATE 1.1
 =====================

 Coefficient of reference function:   C(0) = 1.00000000 (fixed)   1.00000000 (relaxed)

 Energy contributions of configuration classes

 CLASS          SQ.NORM        ECORR1        ECORR2
 +++++++++++++++++++++++++++++++++++++++++++++++++++
 Internals    0.00530901   -0.00810271    0.26620498
 Singles      0.04794780   -0.12626989   -0.22602246
 Pairs        0.05422604   -0.20509873   -0.35977661
 Total        1.10748285   -0.33947133   -0.31959410
 +++++++++++++++++++++++++++++++++++++++++++++++++++


 Reference energy                    -183.81893982
 Nuclear energy                        51.82298786
 Kinetic energy                       183.63704768
 One electron energy                 -353.15342671
 Two electron energy                  117.19190492
 Virial quotient                       -1.00273086
 Correlation energy                    -0.31959410
 !RSPT2 STATE 1.1 Energy             -184.138533921121

 Properties without orbital relaxation:

 !RSPT2 STATE 1.1 Dipole moment        -0.76906782    -0.13530245     0.00000000
 Dipole moment /Debye                  -1.95464740    -0.34388201     0.00000000


 **********************************************************************************************************************************

1PROGRAM * MULTI (Direct Multiconfiguration SCF)       Authors: P.J. Knowles, H.-J. Werner (1984)     S.T. Elbert (1988)


 Number of closed-shell orbitals:   5 (   5 )
 Number of active  orbitals:       10 (  10 )
 Number of external orbitals:      75 (  54 )

 State symmetry 1

 Number of electrons:    12    Spin symmetry=Singlet   Space symmetry=1
 Number of states:        1
 Number of CSFs:      13860
 
 Maximum number of shells:             7
 Maximum number of spin couplings:   132

 Storage for configuration lists   24068, coupling coefficients 301503, address lists 324180

 Molecular orbitals read from record     2141.2  Type=MCSCF/NATURAL (state 1.1)

 Wavefunction dump at record             3140.4

 Convergence thresholds  0.10E-04 (gradient)  0.10E-07 (energy)  0.10E-02 (step length)

 Eigenvalues of redundancy matrix
   1- 10   -0.000000   -0.000000   -0.000000   -0.000000   -0.000000   -0.000000   -0.000000   -0.000000   -0.000000   -0.000000
  11- 20   -0.000000   -0.000000   -0.000000   -0.000000   -0.000000   -0.000000    0.000000    0.000000    0.000000    0.000000
  21- 30    0.000000    0.000000    0.000000    0.000000    0.000000    0.000000    0.000000    0.000000    0.000000    0.000000
  31- 40    0.000000    0.000000    0.000000    0.000000    0.000000    0.000000    0.000000    0.000000    0.000000    0.000000
  41- 45    0.000000    0.000000    0.000000    0.000000    0.000000

 Number of orbital rotations:      860   (    50 Core/Active    270 Core/Virtual   0 Active/Active    540 Active/Virtual)
 Total number of variables:      14720


 ITER. MIC  NCI  NEG     ENERGY(VAR)     ENERGY(PROJ)   ENERGY CHANGE     GRAD(0)  GRAD(ORB)   GRAD(CI)     STEP       TIME

   1   39   21    0    -183.81893982    -183.81893982    0.00000000    0.00000005 0.00000000 0.00000015  0.00D+00      1.52

 Warning: orbitals not optimized!

 Solving MCSCF z-vector equations for state  1.1, requested accuracy=      0.10D-05
 Convergence reached in  24 iterations ( 24 expansion vectors), accuracy=  0.68D-06

 Properties including orbital relaxation:

 !RSPT2 dipole moments (ED):           -0.82994783    -0.12070895     0.00000000

 RSPT2 Gradient info saved on record         5200.1

 CPU-time for rhs:           77.19 sec
 CPU-time for cpmcscf:        6.42 sec
 CPU-time for densities:      0.00 sec


 **********************************************************************************************************************************
 DATASETS  * FILE   NREC   LENGTH (MB)   RECORD NAMES
              1      27      174.46       500      610      700      701      900      702      950      970     1001      129   
                                          VAR    BASINP    GEOM     GEOM    SYMINP    GEOM     ZMAT    AOBASIS   BASIS     P2S  
                                          960     1100     1400     1410     1200     1210     1080     1600     1650     1700   
                                        ABASIS      S        T        V       H0       H01     AOSYM     SMH    MOLCAS    OPER   
                                         1380     7000     7001     5200     5210     7009     7005   
                                         JKOP                      RS2GRAD  RS2GRAD    

              2      12        1.20       700     1000      520     2100     2140      701     1001     2141     5300     5400   
                                         GEOM     BASIS   MCVARS     RHF     MCSCF    GEOM     BASIS    MCSCF    HESS     FREQ   
                                         5450      702   
                                         NMOD     GEOM   

 PROGRAMS   *        TOTAL       RS2       RS2     MULTI        HF       INT
 CPU TIMES  *      6704.85    369.64    140.75      7.24      0.07      0.34
 REAL TIME  *      6809.60 SEC
 DISK USED  *         1.30 GB      
 SF USED    *       696.50 MB      
 GA USED    *         0.00 MB       (max)       0.00 MB       (current)
 **********************************************************************************************************************************


 **********************************************************************************************************************************
 DATASETS  * FILE   NREC   LENGTH (MB)   RECORD NAMES
              1      27      174.46       500      610      700      701      900      702      950      970     1001      129   
                                          VAR    BASINP    GEOM     GEOM    SYMINP    GEOM     ZMAT    AOBASIS   BASIS     P2S  
                                          960     1100     1400     1410     1200     1210     1080     1600     1650     1700   
                                        ABASIS      S        T        V       H0       H01     AOSYM     SMH    MOLCAS    OPER   
                                         1380     7000     7001     5200     5210     7009     7005   
                                         JKOP                      RS2GRAD  RS2GRAD    

              2      12        1.20       700     1000      520     2100     2140      701     1001     2141     5300     5400   
                                         GEOM     BASIS   MCVARS     RHF     MCSCF    GEOM     BASIS    MCSCF    HESS     FREQ   
                                         5450      702   
                                         NMOD     GEOM   

 PROGRAMS   *        TOTAL      FREQ       RS2     MULTI        HF       INT
 CPU TIMES  *      6704.85   6556.34    140.75      7.24      0.07      0.34
 REAL TIME  *      6809.60 SEC
 DISK USED  *         1.30 GB      
 SF USED    *       696.50 MB      
 GA USED    *         0.00 MB       (max)       0.00 MB       (current)
 **********************************************************************************************************************************

 RS2/aug-cc-pVDZ energy=   -184.138533921121

        RS2             MULTI           HF-SCF  
   -184.13853391   -183.81893982   -183.65564091
 **********************************************************************************************************************************
 Variable memory released
