 Entering Gaussian System, Link 0=g09
 Input=qc.in
 Output=qc.log
 Initial command:
 /soft/gaussian/09-d.01/g09/l1.exe "/blues/gpfs/home/ajasper/nst/nst_release_2016_06_28/runs/mebel/Gau-87531.inp" -scrdir="/blues/gpfs/home/ajasper/nst/nst_release_2016_06_28/runs/mebel/"
 Entering Link 1 = /soft/gaussian/09-d.01/g09/l1.exe PID=     87532.
  
 Copyright (c) 1988,1990,1992,1993,1995,1998,2003,2009,2013,
            Gaussian, Inc.  All Rights Reserved.
  
 This is part of the Gaussian(R) 09 program.  It is based on
 the Gaussian(R) 03 system (copyright 2003, Gaussian, Inc.),
 the Gaussian(R) 98 system (copyright 1998, Gaussian, Inc.),
 the Gaussian(R) 94 system (copyright 1995, Gaussian, Inc.),
 the Gaussian 92(TM) system (copyright 1992, Gaussian, Inc.),
 the Gaussian 90(TM) system (copyright 1990, Gaussian, Inc.),
 the Gaussian 88(TM) system (copyright 1988, Gaussian, Inc.),
 the Gaussian 86(TM) system (copyright 1986, Carnegie Mellon
 University), and the Gaussian 82(TM) system (copyright 1983,
 Carnegie Mellon University). Gaussian is a federally registered
 trademark of Gaussian, Inc.
  
 This software contains proprietary and confidential information,
 including trade secrets, belonging to Gaussian, Inc.
  
 This software is provided under written license and may be
 used, copied, transmitted, or stored only in accord with that
 written license.
  
 The following legend is applicable only to US Government
 contracts under FAR:
  
                    RESTRICTED RIGHTS LEGEND
  
 Use, reproduction and disclosure by the US Government is
 subject to restrictions as set forth in subparagraphs (a)
 and (c) of the Commercial Computer Software - Restricted
 Rights clause in FAR 52.227-19.
  
 Gaussian, Inc.
 340 Quinnipiac St., Bldg. 40, Wallingford CT 06492
  
  
 ---------------------------------------------------------------
 Warning -- This program may not be used in any manner that
 competes with the business of Gaussian, Inc. or will provide
 assistance to any competitor of Gaussian, Inc.  The licensee
 of this program is prohibited from giving any competitor of
 Gaussian, Inc. access to this program.  By using this program,
 the user acknowledges that Gaussian, Inc. is engaged in the
 business of creating and licensing software in the field of
 computational chemistry and represents and warrants to the
 licensee that it is not a competitor of Gaussian, Inc. and that
 it will not use this program in any manner prohibited above.
 ---------------------------------------------------------------
  

 Cite this work as:
 Gaussian 09, Revision D.01,
 M. J. Frisch, G. W. Trucks, H. B. Schlegel, G. E. Scuseria, 
 M. A. Robb, J. R. Cheeseman, G. Scalmani, V. Barone, B. Mennucci, 
 G. A. Petersson, H. Nakatsuji, M. Caricato, X. Li, H. P. Hratchian, 
 A. F. Izmaylov, J. Bloino, G. Zheng, J. L. Sonnenberg, M. Hada, 
 M. Ehara, K. Toyota, R. Fukuda, J. Hasegawa, M. Ishida, T. Nakajima, 
 Y. Honda, O. Kitao, H. Nakai, T. Vreven, J. A. Montgomery, Jr., 
 J. E. Peralta, F. Ogliaro, M. Bearpark, J. J. Heyd, E. Brothers, 
 K. N. Kudin, V. N. Staroverov, T. Keith, R. Kobayashi, J. Normand, 
 K. Raghavachari, A. Rendell, J. C. Burant, S. S. Iyengar, J. Tomasi, 
 M. Cossi, N. Rega, J. M. Millam, M. Klene, J. E. Knox, J. B. Cross, 
 V. Bakken, C. Adamo, J. Jaramillo, R. Gomperts, R. E. Stratmann, 
 O. Yazyev, A. J. Austin, R. Cammi, C. Pomelli, J. W. Ochterski, 
 R. L. Martin, K. Morokuma, V. G. Zakrzewski, G. A. Voth, 
 P. Salvador, J. J. Dannenberg, S. Dapprich, A. D. Daniels, 
 O. Farkas, J. B. Foresman, J. V. Ortiz, J. Cioslowski, 
 and D. J. Fox, Gaussian, Inc., Wallingford CT, 2013.
 
 ******************************************
 Gaussian 09:  EM64L-G09RevD.01 24-Apr-2013
                22-May-2018 
 ******************************************
 %nproc=12
 Will use up to   12 processors via shared memory.
 %mem=1GB
 Default route:  MaxDisk=100GB
 ----------------------------------------------------------------------
 #um062x/cc-pvtz fchk NoSym Units=bohr scf=(xqc,tight) #int=ultrafine g
 uess=mix
 ----------------------------------------------------------------------
 1/20=1,38=1/1;
 2/12=2,15=1,17=6,18=5,40=1/2;
 3/5=16,6=1,11=2,16=1,25=1,30=1,74=-55,75=-5,116=2/1,2,3;
 4/13=-1/1;
 5/5=2,8=3,13=1,32=2,38=5/2,8;
 6/7=2,8=2,9=2,10=2,28=1/1;
 99/5=1,9=1/99;
 -----
 title
 -----
 Symbolic Z-matrix:
 Charge =  0 Multiplicity = 1
 O                    -2.43714   0.        0.05686 
 C                    -0.11004   0.        0.00297 
 C                     1.41266   0.        2.31488 
 C                     1.30847   0.       -2.37744 
 H                     0.46786   0.        4.10905 
 H                     3.44027   0.        2.25685 
 H                     0.28389   0.       -4.12865 
 H                     3.37878   0.       -2.42968 
 
                          Input orientation:                          
 ---------------------------------------------------------------------
 Center     Atomic      Atomic             Coordinates (Angstroms)
 Number     Number       Type             X           Y           Z
 ---------------------------------------------------------------------
      1          8           0       -1.289680    0.000000    0.030091
      2          6           0       -0.058230    0.000000    0.001570
      3          6           0        0.747548    0.000000    1.224981
      4          6           0        0.692415    0.000000   -1.258089
      5          1           0        0.247581    0.000000    2.174418
      6          1           0        1.820512    0.000000    1.194276
      7          1           0        0.150228    0.000000   -2.184788
      8          1           0        1.787972    0.000000   -1.285731
 ---------------------------------------------------------------------
                    Distance matrix (angstroms):
                    1          2          3          4          5
     1  O    0.000000
     2  C    1.231780   0.000000
     3  C    2.361791   1.464927   0.000000
     4  C    2.363917   1.466359   2.483682   0.000000
     5  H    2.638430   2.194262   1.073032   3.461211   0.000000
     6  H    3.320936   2.225357   1.073403   2.699389   1.853318
     7  H    2.641783   2.196273   3.461693   1.073656   4.360293
     8  H    3.347137   2.250690   2.717749   1.095906   3.787537
                    6          7          8
     6  H    0.000000
     7  H    3.769340   0.000000
     8  H    2.480220   1.868291   0.000000
 Symmetry turned off by external request.
 Stoichiometry    C3H4O
 Framework group  CS[SG(C3H4O)]
 Deg. of freedom    13
 Full point group                 CS      NOp   2
 Rotational constants (GHZ):     11.0464459     10.1697874      5.2950024
 Standard basis: CC-pVTZ (5D, 7F)
   176 basis functions,   276 primitive gaussians,   200 cartesian basis functions
    15 alpha electrons       15 beta electrons
       nuclear repulsion energy       104.3976206693 Hartrees.
 NAtoms=    8 NActive=    8 NUniq=    8 SFac= 1.00D+00 NAtFMM=   60 NAOKFM=F Big=F
 Integral buffers will be    131072 words long.
 Raffenetti 2 integral format.
 Two-electron integral symmetry is turned off.
 One-electron integrals computed using PRISM.
 NBasis=   176 RedAO= T EigKep=  6.92D-04  NBF=   176
 NBsUse=   176 1.00D-06 EigRej= -1.00D+00 NBFU=   176
 ExpMin= 1.03D-01 ExpMax= 1.53D+04 ExpMxC= 5.22D+02 IAcc=3 IRadAn=         5 AccDes= 0.00D+00
 Harris functional with IExCor= 1009 and IRadAn=       5 diagonalized for initial guess.
 HarFok:  IExCor= 1009 AccDes= 0.00D+00 IRadAn=         5 IDoV= 1 UseB2=F ITyADJ=14
 ICtDFT=  3500011 ScaDFX=  1.000000  1.000000  1.000000  1.000000
 FoFCou: FMM=F IPFlag=           0 FMFlag=      100000 FMFlg1=           0
         NFxFlg=           0 DoJE=T BraDBF=F KetDBF=T FulRan=T
         wScrn=  0.000000 ICntrl=     500 IOpCl=  0 I1Cent=   200000004 NGrid=           0
         NMat0=    1 NMatS0=      1 NMatT0=    0 NMatD0=    1 NMtDS0=    0 NMtDT0=    0
 Symmetry not used in FoFCou.
 Mixing orbitals, IMix= 1 IMixAn=  0 NRI=1 NE=   15 Coef=  7.07106781D-01  7.07106781D-01
 Mixing orbitals, IMix= 1 IMixAn=  0 NRI=1 NE=   15 Coef= -7.07106781D-01  7.07106781D-01
 Initial guess <Sx>= 0.0000 <Sy>= 0.0000 <Sz>= 0.0000 <S**2>= 1.0000 S= 0.6180
 Requested convergence on RMS density matrix=1.00D-08 within  64 cycles.
 Requested convergence on MAX density matrix=1.00D-06.
 Requested convergence on             energy=1.00D-06.
 No special actions if energy rises.
 Integral accuracy reduced to 1.0D-05 until final iterations.
 Initial convergence to 1.0D-05 achieved.  Increase integral accuracy.
 SCF Done:  E(UM062X) =  -191.814207418     A.U. after   18 cycles
            NFock= 18  Conv=0.84D-08     -V/T= 2.0059
 <Sx>= 0.0000 <Sy>= 0.0000 <Sz>= 0.0000 <S**2>= 0.8648 S= 0.5559
 <L.S>= 0.000000000000E+00
 Annihilation of the first spin contaminant:
 S**2 before annihilation     0.8648,   after     0.0437
 QCSCF skips out because SCF is already converged.

 **********************************************************************

            Population analysis using the SCF density.

 **********************************************************************

 Alpha  occ. eigenvalues --  -19.59414 -10.63068 -10.58729 -10.58404  -1.14427
 Alpha  occ. eigenvalues --   -0.87131  -0.78406  -0.62806  -0.55878  -0.54977
 Alpha  occ. eigenvalues --   -0.48070  -0.47833  -0.47104  -0.32859  -0.30780
 Alpha virt. eigenvalues --   -0.08061   0.07099   0.10071   0.11471   0.11806
 Alpha virt. eigenvalues --    0.14920   0.18399   0.23526   0.28641   0.31344
 Alpha virt. eigenvalues --    0.31693   0.35560   0.36184   0.37359   0.41280
 Alpha virt. eigenvalues --    0.41541   0.44644   0.48823   0.49270   0.50434
 Alpha virt. eigenvalues --    0.50701   0.53783   0.55802   0.58656   0.59796
 Alpha virt. eigenvalues --    0.64163   0.71190   0.72851   0.75704   0.75714
 Alpha virt. eigenvalues --    0.82454   0.84830   0.87880   0.90879   0.92266
 Alpha virt. eigenvalues --    0.95207   0.97548   0.99619   1.03669   1.05844
 Alpha virt. eigenvalues --    1.11660   1.13720   1.19759   1.23017   1.26415
 Alpha virt. eigenvalues --    1.29857   1.30730   1.32867   1.34947   1.36362
 Alpha virt. eigenvalues --    1.42572   1.44612   1.53256   1.64767   1.66965
 Alpha virt. eigenvalues --    1.73096   1.80099   1.96315   1.98118   2.09486
 Alpha virt. eigenvalues --    2.11546   2.13365   2.16237   2.21739   2.22640
 Alpha virt. eigenvalues --    2.25200   2.34214   2.36596   2.41728   2.46056
 Alpha virt. eigenvalues --    2.53314   2.54184   2.60001   2.60899   2.70199
 Alpha virt. eigenvalues --    2.71840   2.73689   2.78080   2.78790   2.79260
 Alpha virt. eigenvalues --    2.83773   2.85143   2.87420   2.93816   2.94548
 Alpha virt. eigenvalues --    2.96174   3.02188   3.03461   3.07584   3.08350
 Alpha virt. eigenvalues --    3.08409   3.11703   3.17228   3.19864   3.20505
 Alpha virt. eigenvalues --    3.22077   3.25887   3.34938   3.37947   3.39551
 Alpha virt. eigenvalues --    3.40932   3.46517   3.47844   3.55022   3.60023
 Alpha virt. eigenvalues --    3.61905   3.65737   3.68025   3.70613   3.73970
 Alpha virt. eigenvalues --    3.85949   3.86933   3.88025   3.89935   3.91338
 Alpha virt. eigenvalues --    3.91929   3.96533   4.00940   4.02434   4.06237
 Alpha virt. eigenvalues --    4.08228   4.12322   4.17698   4.19306   4.31366
 Alpha virt. eigenvalues --    4.45012   4.50196   4.58276   4.71913   4.75614
 Alpha virt. eigenvalues --    4.78022   4.80881   4.82574   4.84219   4.92996
 Alpha virt. eigenvalues --    4.95314   4.95474   5.12883   5.20798   5.21694
 Alpha virt. eigenvalues --    5.25419   5.25503   5.39451   5.44794   5.62749
 Alpha virt. eigenvalues --    5.66030   5.67255   5.86127   5.91407   6.14510
 Alpha virt. eigenvalues --    6.32721   6.39912   6.48844   6.84798   6.85129
 Alpha virt. eigenvalues --    7.03047   7.10258   9.46145  11.83919  12.31206
 Alpha virt. eigenvalues --   13.18794
  Beta  occ. eigenvalues --  -19.59412 -10.63068 -10.58956 -10.58181  -1.14421
  Beta  occ. eigenvalues --   -0.87049  -0.78485  -0.62804  -0.55651  -0.55183
  Beta  occ. eigenvalues --   -0.48032  -0.47901  -0.47091  -0.32855  -0.30768
  Beta virt. eigenvalues --   -0.08078   0.07054   0.10068   0.11432   0.11812
  Beta virt. eigenvalues --    0.14879   0.18378   0.23526   0.28637   0.31321
  Beta virt. eigenvalues --    0.31640   0.35531   0.36066   0.37365   0.41264
  Beta virt. eigenvalues --    0.41433   0.44774   0.48945   0.49240   0.50402
  Beta virt. eigenvalues --    0.50658   0.53772   0.55801   0.58674   0.59804
  Beta virt. eigenvalues --    0.64151   0.71190   0.72865   0.75687   0.75720
  Beta virt. eigenvalues --    0.82480   0.84836   0.87889   0.90899   0.92235
  Beta virt. eigenvalues --    0.95193   0.97655   0.99493   1.03640   1.05811
  Beta virt. eigenvalues --    1.11651   1.13716   1.19759   1.23018   1.26323
  Beta virt. eigenvalues --    1.30053   1.30501   1.32741   1.35116   1.36371
  Beta virt. eigenvalues --    1.42551   1.44362   1.53450   1.64623   1.67159
  Beta virt. eigenvalues --    1.73090   1.80160   1.96276   1.98114   2.09559
  Beta virt. eigenvalues --    2.11569   2.13184   2.16343   2.21798   2.22626
  Beta virt. eigenvalues --    2.25229   2.34186   2.36614   2.41725   2.46070
  Beta virt. eigenvalues --    2.53242   2.54147   2.60039   2.60960   2.70187
  Beta virt. eigenvalues --    2.71834   2.73701   2.78122   2.78788   2.79105
  Beta virt. eigenvalues --    2.83357   2.85033   2.88045   2.93987   2.94430
  Beta virt. eigenvalues --    2.96068   3.01913   3.03343   3.07631   3.08680
  Beta virt. eigenvalues --    3.08705   3.11400   3.17145   3.19839   3.20441
  Beta virt. eigenvalues --    3.22107   3.25837   3.34494   3.37914   3.39695
  Beta virt. eigenvalues --    3.40744   3.46721   3.48222   3.55003   3.59999
  Beta virt. eigenvalues --    3.61815   3.65388   3.68401   3.70492   3.74113
  Beta virt. eigenvalues --    3.85930   3.86923   3.87631   3.90102   3.91584
  Beta virt. eigenvalues --    3.91834   3.96294   4.00930   4.02457   4.06506
  Beta virt. eigenvalues --    4.08199   4.12158   4.17630   4.19508   4.31387
  Beta virt. eigenvalues --    4.44831   4.50139   4.58238   4.69176   4.76872
  Beta virt. eigenvalues --    4.78551   4.79642   4.82907   4.85114   4.91706
  Beta virt. eigenvalues --    4.96771   4.96986   5.12664   5.19645   5.21779
  Beta virt. eigenvalues --    5.25441   5.26790   5.39695   5.44696   5.62778
  Beta virt. eigenvalues --    5.65844   5.67572   5.84569   5.93052   6.14518
  Beta virt. eigenvalues --    6.32756   6.39929   6.48852   6.84849   6.85140
  Beta virt. eigenvalues --    7.03054   7.10262   9.46172  11.83499  12.31361
  Beta virt. eigenvalues --   13.18866
          Condensed to atoms (all electrons):
               1          2          3          4          5          6
     1  O    7.825235   0.745932  -0.120548  -0.119926   0.008562   0.004651
     2  C    0.745932   4.475837   0.299585   0.298957  -0.035235  -0.030849
     3  C   -0.120548   0.299585   5.545308  -0.127010   0.371917   0.359053
     4  C   -0.119926   0.298957  -0.127010   5.543778   0.010008   0.008941
     5  H    0.008562  -0.035235   0.371917   0.010008   0.474042  -0.026271
     6  H    0.004651  -0.030849   0.359053   0.008941  -0.026271   0.514557
     7  H    0.008609  -0.035272   0.010070   0.370439  -0.000305  -0.000709
     8  H    0.004506  -0.029950   0.008604   0.358504  -0.000686  -0.002536
               7          8
     1  O    0.008609   0.004506
     2  C   -0.035272  -0.029950
     3  C    0.010070   0.008604
     4  C    0.370439   0.358504
     5  H   -0.000305  -0.000686
     6  H   -0.000709  -0.002536
     7  H    0.473392  -0.025756
     8  H   -0.025756   0.521282
          Atomic-Atomic Spin Densities.
               1          2          3          4          5          6
     1  O    0.001254  -0.000023  -0.023373   0.023232   0.000508  -0.000060
     2  C   -0.000023  -0.000357   0.006051  -0.005629   0.005270   0.003106
     3  C   -0.023373   0.006051   0.915704  -0.000166  -0.006616  -0.005606
     4  C    0.023232  -0.005629  -0.000166  -0.917817  -0.000124   0.000797
     5  H    0.000508   0.005270  -0.006616  -0.000124  -0.028473   0.004033
     6  H   -0.000060   0.003106  -0.005606   0.000797   0.004033  -0.038751
     7  H   -0.000503  -0.005311   0.000134   0.006973   0.000000   0.000044
     8  H    0.000058  -0.003135  -0.000735   0.004940  -0.000047   0.000028
               7          8
     1  O   -0.000503   0.000058
     2  C   -0.005311  -0.003135
     3  C    0.000134  -0.000735
     4  C    0.006973   0.004940
     5  H    0.000000  -0.000047
     6  H    0.000044   0.000028
     7  H    0.028921  -0.004031
     8  H   -0.004031   0.039890
 Mulliken charges and spin densities:
               1          2
     1  O   -0.357022   0.001091
     2  C    0.310996  -0.000028
     3  C   -0.346979   0.885393
     4  C   -0.343692  -0.887793
     5  H    0.197969  -0.025448
     6  H    0.173164  -0.036409
     7  H    0.199532   0.026226
     8  H    0.166031   0.036968
 Sum of Mulliken charges =   0.00000   0.00000
 Mulliken charges and spin densities with hydrogens summed into heavy atoms:
               1          2
     1  O   -0.357022   0.001091
     2  C    0.310996  -0.000028
     3  C    0.024155   0.823535
     4  C    0.021870  -0.824599
 Electronic spatial extent (au):  <R**2>=            257.2983
 Charge=              0.0000 electrons
 Dipole moment (field-independent basis, Debye):
    X=              3.6743    Y=              0.0000    Z=             -0.0827  Tot=              3.6752
 Quadrupole moment (field-independent basis, Debye-Ang):
   XX=            -26.1047   YY=            -25.1982   ZZ=            -19.8399
   XY=              0.0000   XZ=              0.1291   YZ=              0.0000
 Traceless Quadrupole moment (field-independent basis, Debye-Ang):
   XX=             -2.3905   YY=             -1.4839   ZZ=              3.8744
   XY=              0.0000   XZ=              0.1291   YZ=              0.0000
 Octapole moment (field-independent basis, Debye-Ang**2):
  XXX=              1.6850  YYY=              0.0000  ZZZ=              0.2292  XYY=             -4.3173
  XXY=              0.0000  XXZ=             -0.1648  XZZ=             -2.0968  YZZ=              0.0000
  YYZ=              0.1437  XYZ=              0.0000
 Hexadecapole moment (field-independent basis, Debye-Ang**3):
 XXXX=           -136.9799 YYYY=            -26.3026 ZZZZ=           -153.6599 XXXY=              0.0000
 XXXZ=             -0.3718 YYYX=              0.0000 YYYZ=              0.0000 ZZZX=              0.2778
 ZZZY=              0.0000 XXYY=            -29.4722 XXZZ=            -51.9044 YYZZ=            -36.3064
 XXYZ=              0.0000 YYXZ=             -0.0391 ZZXY=              0.0000
 N-N= 1.043976206693D+02 E-N=-6.567011504133D+02  KE= 1.906954047379D+02
                          Isotropic Fermi Contact Couplings
        Atom                 a.u.       MegaHertz       Gauss      10(-4) cm-1
     1  O(17)              0.00022      -0.06541      -0.02334      -0.02182
     2  C(13)             -0.00022      -0.12166      -0.04341      -0.04058
     3  C(13)              0.15615      87.77050      31.31870      29.27709
     4  C(13)             -0.15892     -89.32572     -31.87364     -29.79585
     5  H(1)              -0.01315     -29.38069     -10.48376      -9.80034
     6  H(1)              -0.01362     -30.44626     -10.86398     -10.15578
     7  H(1)               0.01315      29.37899      10.48315       9.79978
     8  H(1)               0.01392      31.10607      11.09942      10.37587
 --------------------------------------------------------
       Center         ----  Spin Dipole Couplings  ----
                      3XX-RR        3YY-RR        3ZZ-RR
 --------------------------------------------------------
     1   Atom       -0.002714      0.004051     -0.001337
     2   Atom        0.001348     -0.000425     -0.000923
     3   Atom       -0.446635      0.909315     -0.462680
     4   Atom        0.446446     -0.910376      0.463931
     5   Atom       -0.031249     -0.003136      0.034385
     6   Atom        0.068632      0.000537     -0.069168
     7   Atom        0.026650      0.003201     -0.029851
     8   Atom       -0.067846      0.000927      0.066919
 --------------------------------------------------------
                        XY            XZ            YZ
 --------------------------------------------------------
     1   Atom        0.000000     -0.008930      0.000000
     2   Atom        0.000000      0.024950      0.000000
     3   Atom        0.000000      0.002693      0.000000
     4   Atom        0.000000      0.003121      0.000000
     5   Atom        0.000000     -0.050616      0.000000
     6   Atom        0.000000     -0.007740      0.000000
     7   Atom        0.000000     -0.053410      0.000000
     8   Atom        0.000000     -0.000534      0.000000
 --------------------------------------------------------


 ---------------------------------------------------------------------------------
              Anisotropic Spin Dipole Couplings in Principal Axis System
 ---------------------------------------------------------------------------------

       Atom             a.u.   MegaHertz   Gauss  10(-4) cm-1        Axes

              Baa    -0.0110     0.795     0.284     0.265  0.7338  0.0000  0.6794
     1 O(17)  Bbb     0.0041    -0.293    -0.105    -0.098  0.0000  1.0000  0.0000
              Bcc     0.0069    -0.501    -0.179    -0.167 -0.6794  0.0000  0.7338
 
              Baa    -0.0248    -3.323    -1.186    -1.108 -0.6908  0.0000  0.7230
     2 C(13)  Bbb    -0.0004    -0.057    -0.020    -0.019  0.0000  1.0000  0.0000
              Bcc     0.0252     3.380     1.206     1.127  0.7230  0.0000  0.6908
 
              Baa    -0.4631   -62.146   -22.175   -20.730 -0.1612  0.0000  0.9869
     3 C(13)  Bbb    -0.4462   -59.875   -21.365   -19.972  0.9869  0.0000  0.1612
              Bcc     0.9093   122.021    43.540    40.702  0.0000  1.0000  0.0000
 
              Baa    -0.9104  -122.164   -43.591   -40.749  0.0000  1.0000  0.0000
     4 C(13)  Bbb     0.4459    59.836    21.351    19.959  0.9853  0.0000 -0.1706
              Bcc     0.4645    62.328    22.240    20.790  0.1706  0.0000  0.9853
 
              Baa    -0.0588   -31.349   -11.186   -10.457  0.8786  0.0000  0.4775
     5 H(1)   Bbb    -0.0031    -1.673    -0.597    -0.558  0.0000  1.0000  0.0000
              Bcc     0.0619    33.022    11.783    11.015 -0.4775  0.0000  0.8786
 
              Baa    -0.0696   -37.136   -13.251   -12.387  0.0559  0.0000  0.9984
     6 H(1)   Bbb     0.0005     0.286     0.102     0.096  0.0000  1.0000  0.0000
              Bcc     0.0691    36.850    13.149    12.292  0.9984  0.0000 -0.0559
 
              Baa    -0.0620   -33.092   -11.808   -11.038  0.5160  0.0000  0.8566
     7 H(1)   Bbb     0.0032     1.708     0.609     0.570  0.0000  1.0000  0.0000
              Bcc     0.0588    31.384    11.199    10.469  0.8566  0.0000 -0.5160
 
              Baa    -0.0678   -36.200   -12.917   -12.075  1.0000  0.0000  0.0040
     8 H(1)   Bbb     0.0009     0.494     0.176     0.165  0.0000  1.0000  0.0000
              Bcc     0.0669    35.706    12.741    11.910 -0.0040  0.0000  1.0000
 

 ---------------------------------------------------------------------------------

 1\1\ FUSION.LCRC.ANL.GOV-B458\SP\UM062X\CC-pVTZ\C3H4O1\AJASPER\22-May-
 2018\0\\#um062x/cc-pvtz fchk NoSym Units=bohr scf=(xqc,tight) #int=ult
 rafine guess=mix\\title\\0,1\O,0,-1.2896795454,0.,0.0300906757\C,0,-0.
 0582295218,0.,0.0015704134\C,0,0.7475479202,0.,1.2249811167\C,0,0.6924
 146795,0.,-1.2580892719\H,0,0.247581141,0.,2.1744180873\H,0,1.82051174
 47,0.,1.1942760269\H,0,0.1502277735,0.,-2.1847878085\H,0,1.7879722919,
 0.,-1.2857307603\\Version=EM64L-G09RevD.01\HF=-191.8142074\S2=0.864833
 \S2-1=0.\S2A=0.0437\RMSD=8.403e-09\Dipole=1.4455618,0.,-0.0325555\Quad
 rupole=-1.7772741,-1.1032436,2.8805177,0.,0.0959979,0.\PG=CS [SG(C3H4O
 1)]\\@


 HEAVEN'S NET CASTS WIDE.
 THOUGH ITS MESHES ARE COARSE, NOTHING SLIPS THROUGH.

                                          -- LAO-TSU
 Job cpu time:       0 days  0 hours  6 minutes 46.7 seconds.
 File lengths (MBytes):  RWF=    128 Int=      0 D2E=      0 Chk=      3 Scr=      2
 Normal termination of Gaussian 09 at Tue May 22 12:03:20 2018.
