title                                                                   
Force     UM062X                                                      CC-pVTZ             
Number of atoms                            I                8
Info1-9                                    I   N=           9
          16          16           0           0           0         100
           5          18        -502
Full Title                                 C   N=           1
title       
Route                                      C   N=           6
#m062x/cc-pvtz force fchk NoSym Units=bohr scf=(xqc,tight) i
nt=ultrafine
Charge                                     I                0
Multiplicity                               I                3
Number of electrons                        I               30
Number of alpha electrons                  I               16
Number of beta electrons                   I               14
Number of basis functions                  I              176
Number of independent functions            I              176
Number of point charges in /Mol/           I                0
Number of translation vectors              I                0
Atomic numbers                             I   N=           8
           8           6           6           6           1           1
           1           1
Nuclear charges                            R   N=           8
  8.00000000E+00  6.00000000E+00  6.00000000E+00  6.00000000E+00  1.00000000E+00
  1.00000000E+00  1.00000000E+00  1.00000000E+00
Current cartesian coordinates              R   N=          24
 -2.43714114E+00  0.00000000E+00  5.68631363E-02 -1.10037849E-01  0.00000000E+00
  2.96765130E-03  1.41266084E+00  0.00000000E+00  2.31487883E+00  1.30847411E+00
  0.00000000E+00 -2.37744417E+00  4.67860552E-01  0.00000000E+00  4.10905468E+00
  3.44026862E+00  0.00000000E+00  2.25685462E+00  2.83889349E-01  0.00000000E+00
 -4.12865062E+00  3.37877796E+00  0.00000000E+00 -2.42967902E+00
Number of symbols in /Mol/                 I                0
Force Field                                I                0
Atom Types                                 C   N=           8
                                                            
                                    
Int Atom Types                             I   N=           8
           0           0           0           0           0           0
           0           0
MM charges                                 R   N=           8
  0.00000000E+00  0.00000000E+00  0.00000000E+00  0.00000000E+00  0.00000000E+00
  0.00000000E+00  0.00000000E+00  0.00000000E+00
Integer atomic weights                     I   N=           8
          16          12          12          12           1           1
           1           1
Real atomic weights                        R   N=           8
  1.59949146E+01  1.20000000E+01  1.20000000E+01  1.20000000E+01  1.00782504E+00
  1.00782504E+00  1.00782504E+00  1.00782504E+00
Atom fragment info                         I   N=           8
           0           0           0           0           0           0
           0           0
Atom residue num                           I   N=           8
           0           0           0           0           0           0
           0           0
Nuclear spins                              I   N=           8
           0           0           0           0           1           1
           1           1
Nuclear ZEff                               R   N=           8
 -5.60000000E+00 -3.60000000E+00 -3.60000000E+00 -3.60000000E+00 -1.00000000E+00
 -1.00000000E+00 -1.00000000E+00 -1.00000000E+00
Nuclear ZNuc                               R   N=           8
  8.00000000E+00  6.00000000E+00  6.00000000E+00  6.00000000E+00  1.00000000E+00
  1.00000000E+00  1.00000000E+00  1.00000000E+00
Nuclear QMom                               R   N=           8
  0.00000000E+00  0.00000000E+00  0.00000000E+00  0.00000000E+00  0.00000000E+00
  0.00000000E+00  0.00000000E+00  0.00000000E+00
Nuclear GFac                               R   N=           8
  0.00000000E+00  0.00000000E+00  0.00000000E+00  0.00000000E+00  2.79284600E+00
  2.79284600E+00  2.79284600E+00  2.79284600E+00
MicOpt                                     I   N=           8
          -1          -1          -1          -1          -1          -1
          -1          -1
Number of residues                         I                0
Number of secondary structures             I                0
Number of contracted shells                I               64
Number of primitive shells                 I              124
Pure/Cartesian d shells                    I                0
Pure/Cartesian f shells                    I                0
Highest angular momentum                   I                3
Largest degree of contraction              I                7
Shell types                                I   N=          64
           0           0           0           0           1           1
           1          -2          -2          -3           0           0
           0           0           1           1           1          -2
          -2          -3           0           0           0           0
           1           1           1          -2          -2          -3
           0           0           0           0           1           1
           1          -2          -2          -3           0           0
           0           1           1          -2           0           0
           0           1           1          -2           0           0
           0           1           1          -2           0           0
           0           1           1          -2
Number of primitives per shell             I   N=          64
           7           6           1           1           3           1
           1           1           1           1           7           6
           1           1           3           1           1           1
           1           1           7           6           1           1
           3           1           1           1           1           1
           7           6           1           1           3           1
           1           1           1           1           3           1
           1           1           1           1           3           1
           1           1           1           1           3           1
           1           1           1           1           3           1
           1           1           1           1
Shell to atom map                          I   N=          64
           1           1           1           1           1           1
           1           1           1           1           2           2
           2           2           2           2           2           2
           2           2           3           3           3           3
           3           3           3           3           3           3
           4           4           4           4           4           4
           4           4           4           4           5           5
           5           5           5           5           6           6
           6           6           6           6           7           7
           7           7           7           7           8           8
           8           8           8           8
Primitive exponents                        R   N=         124
  1.53300000E+04  2.29900000E+03  5.22400000E+02  1.47300000E+02  4.75500000E+01
  1.67600000E+01  6.20700000E+00  5.22400000E+02  1.47300000E+02  4.75500000E+01
  1.67600000E+01  6.20700000E+00  6.88200000E-01  1.75200000E+00  2.38400000E-01
  3.44600000E+01  7.74900000E+00  2.28000000E+00  7.15600000E-01  2.14000000E-01
  2.31400000E+00  6.45000000E-01  1.42800000E+00  8.23600000E+03  1.23500000E+03
  2.80800000E+02  7.92700000E+01  2.55900000E+01  8.99700000E+00  3.31900000E+00
  2.80800000E+02  7.92700000E+01  2.55900000E+01  8.99700000E+00  3.31900000E+00
  3.64300000E-01  9.05900000E-01  1.28500000E-01  1.87100000E+01  4.13300000E+00
  1.20000000E+00  3.82700000E-01  1.20900000E-01  1.09700000E+00  3.18000000E-01
  7.61000000E-01  8.23600000E+03  1.23500000E+03  2.80800000E+02  7.92700000E+01
  2.55900000E+01  8.99700000E+00  3.31900000E+00  2.80800000E+02  7.92700000E+01
  2.55900000E+01  8.99700000E+00  3.31900000E+00  3.64300000E-01  9.05900000E-01
  1.28500000E-01  1.87100000E+01  4.13300000E+00  1.20000000E+00  3.82700000E-01
  1.20900000E-01  1.09700000E+00  3.18000000E-01  7.61000000E-01  8.23600000E+03
  1.23500000E+03  2.80800000E+02  7.92700000E+01  2.55900000E+01  8.99700000E+00
  3.31900000E+00  2.80800000E+02  7.92700000E+01  2.55900000E+01  8.99700000E+00
  3.31900000E+00  3.64300000E-01  9.05900000E-01  1.28500000E-01  1.87100000E+01
  4.13300000E+00  1.20000000E+00  3.82700000E-01  1.20900000E-01  1.09700000E+00
  3.18000000E-01  7.61000000E-01  3.38700000E+01  5.09500000E+00  1.15900000E+00
  3.25800000E-01  1.02700000E-01  1.40700000E+00  3.88000000E-01  1.05700000E+00
  3.38700000E+01  5.09500000E+00  1.15900000E+00  3.25800000E-01  1.02700000E-01
  1.40700000E+00  3.88000000E-01  1.05700000E+00  3.38700000E+01  5.09500000E+00
  1.15900000E+00  3.25800000E-01  1.02700000E-01  1.40700000E+00  3.88000000E-01
  1.05700000E+00  3.38700000E+01  5.09500000E+00  1.15900000E+00  3.25800000E-01
  1.02700000E-01  1.40700000E+00  3.88000000E-01  1.05700000E+00
Contraction coefficients                   R   N=         124
  5.19808943E-04  4.02025621E-03  2.07128267E-02  8.10105536E-02  2.35962985E-01
  4.42653446E-01  3.57064423E-01 -4.42115008E-05 -1.22591041E-03 -1.05517725E-02
 -6.74452633E-02 -1.71198607E-01  1.07329856E+00  1.00000000E+00  1.00000000E+00
  4.11634896E-02  2.57762836E-01  8.02419274E-01  1.00000000E+00  1.00000000E+00
  1.00000000E+00  1.00000000E+00  1.00000000E+00  5.41978320E-04  4.19287382E-03
  2.15221621E-02  8.35343220E-02  2.39582846E-01  4.42852842E-01  3.51799562E-01
 -5.94922494E-05 -1.14815831E-03 -1.00191374E-02 -6.12194923E-02 -1.73269854E-01
  1.07291519E+00  1.00000000E+00  1.00000000E+00  3.94263872E-02  2.44088985E-01
  8.15492009E-01  1.00000000E+00  1.00000000E+00  1.00000000E+00  1.00000000E+00
  1.00000000E+00  5.41978320E-04  4.19287382E-03  2.15221621E-02  8.35343220E-02
  2.39582846E-01  4.42852842E-01  3.51799562E-01 -5.94922494E-05 -1.14815831E-03
 -1.00191374E-02 -6.12194923E-02 -1.73269854E-01  1.07291519E+00  1.00000000E+00
  1.00000000E+00  3.94263872E-02  2.44088985E-01  8.15492009E-01  1.00000000E+00
  1.00000000E+00  1.00000000E+00  1.00000000E+00  1.00000000E+00  5.41978320E-04
  4.19287382E-03  2.15221621E-02  8.35343220E-02  2.39582846E-01  4.42852842E-01
  3.51799562E-01 -5.94922494E-05 -1.14815831E-03 -1.00191374E-02 -6.12194923E-02
 -1.73269854E-01  1.07291519E+00  1.00000000E+00  1.00000000E+00  3.94263872E-02
  2.44088985E-01  8.15492009E-01  1.00000000E+00  1.00000000E+00  1.00000000E+00
  1.00000000E+00  1.00000000E+00  2.54948632E-02  1.90362766E-01  8.52162022E-01
  1.00000000E+00  1.00000000E+00  1.00000000E+00  1.00000000E+00  1.00000000E+00
  2.54948632E-02  1.90362766E-01  8.52162022E-01  1.00000000E+00  1.00000000E+00
  1.00000000E+00  1.00000000E+00  1.00000000E+00  2.54948632E-02  1.90362766E-01
  8.52162022E-01  1.00000000E+00  1.00000000E+00  1.00000000E+00  1.00000000E+00
  1.00000000E+00  2.54948632E-02  1.90362766E-01  8.52162022E-01  1.00000000E+00
  1.00000000E+00  1.00000000E+00  1.00000000E+00  1.00000000E+00
Coordinates of each shell                  R   N=         192
 -2.43714114E+00  0.00000000E+00  5.68631363E-02 -2.43714114E+00  0.00000000E+00
  5.68631363E-02 -2.43714114E+00  0.00000000E+00  5.68631363E-02 -2.43714114E+00
  0.00000000E+00  5.68631363E-02 -2.43714114E+00  0.00000000E+00  5.68631363E-02
 -2.43714114E+00  0.00000000E+00  5.68631363E-02 -2.43714114E+00  0.00000000E+00
  5.68631363E-02 -2.43714114E+00  0.00000000E+00  5.68631363E-02 -2.43714114E+00
  0.00000000E+00  5.68631363E-02 -2.43714114E+00  0.00000000E+00  5.68631363E-02
 -1.10037849E-01  0.00000000E+00  2.96765130E-03 -1.10037849E-01  0.00000000E+00
  2.96765130E-03 -1.10037849E-01  0.00000000E+00  2.96765130E-03 -1.10037849E-01
  0.00000000E+00  2.96765130E-03 -1.10037849E-01  0.00000000E+00  2.96765130E-03
 -1.10037849E-01  0.00000000E+00  2.96765130E-03 -1.10037849E-01  0.00000000E+00
  2.96765130E-03 -1.10037849E-01  0.00000000E+00  2.96765130E-03 -1.10037849E-01
  0.00000000E+00  2.96765130E-03 -1.10037849E-01  0.00000000E+00  2.96765130E-03
  1.41266084E+00  0.00000000E+00  2.31487883E+00  1.41266084E+00  0.00000000E+00
  2.31487883E+00  1.41266084E+00  0.00000000E+00  2.31487883E+00  1.41266084E+00
  0.00000000E+00  2.31487883E+00  1.41266084E+00  0.00000000E+00  2.31487883E+00
  1.41266084E+00  0.00000000E+00  2.31487883E+00  1.41266084E+00  0.00000000E+00
  2.31487883E+00  1.41266084E+00  0.00000000E+00  2.31487883E+00  1.41266084E+00
  0.00000000E+00  2.31487883E+00  1.41266084E+00  0.00000000E+00  2.31487883E+00
  1.30847411E+00  0.00000000E+00 -2.37744417E+00  1.30847411E+00  0.00000000E+00
 -2.37744417E+00  1.30847411E+00  0.00000000E+00 -2.37744417E+00  1.30847411E+00
  0.00000000E+00 -2.37744417E+00  1.30847411E+00  0.00000000E+00 -2.37744417E+00
  1.30847411E+00  0.00000000E+00 -2.37744417E+00  1.30847411E+00  0.00000000E+00
 -2.37744417E+00  1.30847411E+00  0.00000000E+00 -2.37744417E+00  1.30847411E+00
  0.00000000E+00 -2.37744417E+00  1.30847411E+00  0.00000000E+00 -2.37744417E+00
  4.67860552E-01  0.00000000E+00  4.10905468E+00  4.67860552E-01  0.00000000E+00
  4.10905468E+00  4.67860552E-01  0.00000000E+00  4.10905468E+00  4.67860552E-01
  0.00000000E+00  4.10905468E+00  4.67860552E-01  0.00000000E+00  4.10905468E+00
  4.67860552E-01  0.00000000E+00  4.10905468E+00  3.44026862E+00  0.00000000E+00
  2.25685462E+00  3.44026862E+00  0.00000000E+00  2.25685462E+00  3.44026862E+00
  0.00000000E+00  2.25685462E+00  3.44026862E+00  0.00000000E+00  2.25685462E+00
  3.44026862E+00  0.00000000E+00  2.25685462E+00  3.44026862E+00  0.00000000E+00
  2.25685462E+00  2.83889349E-01  0.00000000E+00 -4.12865062E+00  2.83889349E-01
  0.00000000E+00 -4.12865062E+00  2.83889349E-01  0.00000000E+00 -4.12865062E+00
  2.83889349E-01  0.00000000E+00 -4.12865062E+00  2.83889349E-01  0.00000000E+00
 -4.12865062E+00  2.83889349E-01  0.00000000E+00 -4.12865062E+00  3.37877796E+00
  0.00000000E+00 -2.42967902E+00  3.37877796E+00  0.00000000E+00 -2.42967902E+00
  3.37877796E+00  0.00000000E+00 -2.42967902E+00  3.37877796E+00  0.00000000E+00
 -2.42967902E+00  3.37877796E+00  0.00000000E+00 -2.42967902E+00  3.37877796E+00
  0.00000000E+00 -2.42967902E+00
Constraint Structure                       R   N=          24
 -2.43714114E+00  0.00000000E+00  5.68631363E-02 -1.10037849E-01  0.00000000E+00
  2.96765130E-03  1.41266084E+00  0.00000000E+00  2.31487883E+00  1.30847411E+00
  0.00000000E+00 -2.37744417E+00  4.67860552E-01  0.00000000E+00  4.10905468E+00
  3.44026862E+00  0.00000000E+00  2.25685462E+00  2.83889349E-01  0.00000000E+00
 -4.12865062E+00  3.37877796E+00  0.00000000E+00 -2.42967902E+00
Num ILSW                                   I              100
ILSW                                       I   N=         100
           1           0           0           0           2           0
           0           0           3           0        4336          -1
           5           1           0           0           2           0
           0           0           1           0           1           0
           1           1           0           0           0           0
           0           0      100000           0          -1           0
           0           0           0           0           0           0
           0           0           0           1           0           0
           0           0           1           0           0           0
           0           0           4          41           0           0
           0           0          55           0           0           0
           0           0           0           0           0           0
           0           0           0           0           0           0
           0           0           0           0           0           0
           0           0           0           0           0           0
           0           0           0           0           0           0
           0           0           0           0
Num RLSW                                   I               41
RLSW                                       R   N=          41
  1.00000000E+00  1.00000000E+00  1.00000000E+00  1.00000000E+00  5.40000000E-01
  0.00000000E+00  0.00000000E+00  1.00000000E+00  0.00000000E+00  0.00000000E+00
  0.00000000E+00  0.00000000E+00  1.00000000E+00  0.00000000E+00  0.00000000E+00
  0.00000000E+00  0.00000000E+00  1.00000000E+00  0.00000000E+00  0.00000000E+00
  0.00000000E+00  0.00000000E+00  1.00000000E+00  0.00000000E+00  0.00000000E+00
  0.00000000E+00  0.00000000E+00  1.00000000E+00  0.00000000E+00  0.00000000E+00
  0.00000000E+00  0.00000000E+00  1.00000000E+00  0.00000000E+00  0.00000000E+00
  0.00000000E+00  0.00000000E+00  0.00000000E+00  1.00000000E+00  1.00000000E+00
  0.00000000E+00
MxBond                                     I                3
NBond                                      I   N=           8
           1           3           3           3           1           1
           1           1
IBond                                      I   N=          24
           2           0           0           1           3           4
           2           5           6           2           7           8
           3           0           0           3           0           0
           4           0           0           4           0           0
RBond                                      R   N=          24
  2.00000000E+00  0.00000000E+00  0.00000000E+00  2.00000000E+00  1.00000000E+00
  1.00000000E+00  1.00000000E+00  1.00000000E+00  1.00000000E+00  1.00000000E+00
  1.00000000E+00  1.00000000E+00  1.00000000E+00  0.00000000E+00  0.00000000E+00
  1.00000000E+00  0.00000000E+00  0.00000000E+00  1.00000000E+00  0.00000000E+00
  0.00000000E+00  1.00000000E+00  0.00000000E+00  0.00000000E+00
Virial Ratio                               R      2.005713936143037E+00
SCF Energy                                 R     -1.918133531206178E+02
Total Energy                               R     -1.918133531206178E+02
S**2                                       R      2.032244559153398E+00
S**2 after annihilation                    R      2.000318133673980E+00
RMS Force                                  R      8.811771155436649E-03
RMS Density                                R      7.158230247405432E-09
Job Status                                 I                1
Nuclear derivative order                   I                1
External E-field                           R   N=          35
  0.00000000E+00  0.00000000E+00  0.00000000E+00  0.00000000E+00  0.00000000E+00
  0.00000000E+00  0.00000000E+00  0.00000000E+00  0.00000000E+00  0.00000000E+00
  0.00000000E+00  0.00000000E+00  0.00000000E+00  0.00000000E+00  0.00000000E+00
  0.00000000E+00  0.00000000E+00  0.00000000E+00  0.00000000E+00  0.00000000E+00
  0.00000000E+00  0.00000000E+00  0.00000000E+00  0.00000000E+00  0.00000000E+00
  0.00000000E+00  0.00000000E+00  0.00000000E+00  0.00000000E+00  0.00000000E+00
  0.00000000E+00  0.00000000E+00  0.00000000E+00  0.00000000E+00  0.00000000E+00
IOpCl                                      I                1
IROHF                                      I                0
Alpha Orbital Energies                     R   N=         176
 -1.96337350E+01 -1.06309646E+01 -1.05755578E+01 -1.05732505E+01 -1.18021996E+00
 -8.79971776E-01 -8.00094607E-01 -6.34021149E-01 -5.61910774E-01 -5.59903611E-01
 -5.13006362E-01 -4.96332590E-01 -4.77458609E-01 -3.56671750E-01 -3.45321727E-01
 -2.91478140E-01  7.50220768E-02  7.73969799E-02  1.18420820E-01  1.19974249E-01
  1.52138614E-01  1.89455592E-01  2.31388445E-01  2.95336527E-01  3.18903903E-01
  3.22239808E-01  3.66182179E-01  3.69756061E-01  3.70348856E-01  4.12218263E-01
  4.18097917E-01  4.46254879E-01  4.95086380E-01  4.95581927E-01  5.00240539E-01
  5.18882010E-01  5.34020546E-01  5.57220081E-01  5.79351092E-01  6.01598500E-01
  6.35924904E-01  7.10495871E-01  7.35496674E-01  7.41149592E-01  7.51744853E-01
  8.21246213E-01  8.56744081E-01  8.73681303E-01  9.13220909E-01  9.29714272E-01
  9.57769856E-01  9.89675832E-01  1.00342453E+00  1.03910432E+00  1.06046826E+00
  1.11511473E+00  1.13813937E+00  1.20196636E+00  1.23213117E+00  1.25904833E+00
  1.29271621E+00  1.30502237E+00  1.32555729E+00  1.34955702E+00  1.35236166E+00
  1.43121313E+00  1.44261256E+00  1.53300321E+00  1.63843907E+00  1.65618943E+00
  1.70547637E+00  1.78751454E+00  1.95651048E+00  1.96977892E+00  2.09408938E+00
  2.11125479E+00  2.12220085E+00  2.13451494E+00  2.20699755E+00  2.22450163E+00
  2.23606090E+00  2.32966650E+00  2.35990408E+00  2.41551551E+00  2.44174702E+00
  2.50651325E+00  2.53551052E+00  2.59349307E+00  2.60424957E+00  2.69405664E+00
  2.71308199E+00  2.72182306E+00  2.75248789E+00  2.77005409E+00  2.78026593E+00
  2.82659261E+00  2.83641684E+00  2.84852943E+00  2.92175798E+00  2.93515264E+00
  2.95108641E+00  2.99056151E+00  3.01991513E+00  3.06206081E+00  3.06552624E+00
  3.08714272E+00  3.09619010E+00  3.16538035E+00  3.19217963E+00  3.19417269E+00
  3.21416489E+00  3.24961461E+00  3.34165365E+00  3.37587619E+00  3.38471571E+00
  3.39491082E+00  3.45989433E+00  3.46363717E+00  3.53931779E+00  3.59501749E+00
  3.61591742E+00  3.65278452E+00  3.67992034E+00  3.70081848E+00  3.72962535E+00
  3.85447596E+00  3.86340660E+00  3.87689353E+00  3.89295985E+00  3.90536438E+00
  3.91273644E+00  3.95879400E+00  4.00541035E+00  4.01575898E+00  4.05065197E+00
  4.07387985E+00  4.09930897E+00  4.15935107E+00  4.16348094E+00  4.30604555E+00
  4.42410965E+00  4.48283972E+00  4.56224870E+00  4.69364041E+00  4.73662884E+00
  4.75546815E+00  4.78743218E+00  4.81514779E+00  4.82410127E+00  4.91228228E+00
  4.91762434E+00  4.94834847E+00  5.09850419E+00  5.17097535E+00  5.18946873E+00
  5.21441549E+00  5.23062086E+00  5.36026626E+00  5.41533273E+00  5.59291839E+00
  5.62302493E+00  5.64361002E+00  5.83182964E+00  5.88245075E+00  6.10739324E+00
  6.29534563E+00  6.34334890E+00  6.44186255E+00  6.80440586E+00  6.81892651E+00
  6.99560148E+00  7.07717468E+00  9.45134150E+00  1.18379795E+01  1.22971619E+01
  1.31755783E+01
Beta Orbital Energies                      R   N=         176
 -1.96258219E+01 -1.06329849E+01 -1.05694701E+01 -1.05672106E+01 -1.15843572E+00
 -8.45847953E-01 -7.60541703E-01 -6.18426710E-01 -5.49508229E-01 -5.44695215E-01
 -4.84203976E-01 -4.67392297E-01 -4.48296450E-01 -3.37146815E-01 -9.98251992E-02
 -3.93388320E-02  7.48250334E-02  1.14261199E-01  1.16767668E-01  1.22620762E-01
  1.54155483E-01  1.83313092E-01  2.29103965E-01  2.86045416E-01  3.17420393E-01
  3.19781162E-01  3.48738024E-01  3.63765157E-01  3.84195758E-01  4.01638533E-01
  4.19020869E-01  4.48914358E-01  4.89248919E-01  4.91854957E-01  5.02320862E-01
  5.02667301E-01  5.56948512E-01  5.63336471E-01  5.93932159E-01  6.00779801E-01
  6.28088990E-01  7.17194077E-01  7.22477858E-01  7.48627086E-01  7.51182471E-01
  8.26007430E-01  8.47190541E-01  8.67188547E-01  9.13285716E-01  9.18926001E-01
  9.55980493E-01  9.76630594E-01  9.87842890E-01  1.03235122E+00  1.06753358E+00
  1.11932209E+00  1.14273023E+00  1.20197004E+00  1.23715348E+00  1.26761419E+00
  1.30084329E+00  1.30942630E+00  1.33619366E+00  1.35394511E+00  1.35709464E+00
  1.43206388E+00  1.45637915E+00  1.54552255E+00  1.65478895E+00  1.66946635E+00
  1.72859952E+00  1.80774034E+00  1.96804897E+00  1.99001151E+00  2.09688953E+00
  2.12015926E+00  2.14465545E+00  2.19904013E+00  2.22508769E+00  2.23498277E+00
  2.24478887E+00  2.34685705E+00  2.37530672E+00  2.43463869E+00  2.49887510E+00
  2.55676742E+00  2.56245495E+00  2.61370129E+00  2.62580173E+00  2.71886551E+00
  2.72217577E+00  2.78166070E+00  2.80758589E+00  2.81402694E+00  2.81602853E+00
  2.87064503E+00  2.87418606E+00  2.90053799E+00  2.96482313E+00  2.98069259E+00
  2.98594247E+00  3.04540860E+00  3.06158455E+00  3.09546175E+00  3.10517370E+00
  3.12284982E+00  3.12576485E+00  3.18542078E+00  3.20047614E+00  3.21244876E+00
  3.22943268E+00  3.27091854E+00  3.36397889E+00  3.39385937E+00  3.41892190E+00
  3.42567170E+00  3.48786460E+00  3.49330495E+00  3.56458033E+00  3.60616547E+00
  3.62880920E+00  3.66870570E+00  3.69263243E+00  3.71896433E+00  3.75573870E+00
  3.87033376E+00  3.87587450E+00  3.89543563E+00  3.91278711E+00  3.92517194E+00
  3.93923405E+00  3.97842090E+00  4.02492936E+00  4.04111868E+00  4.08091679E+00
  4.09350183E+00  4.14640778E+00  4.19416692E+00  4.19726795E+00  4.32653630E+00
  4.46109531E+00  4.52406035E+00  4.58807774E+00  4.74769424E+00  4.79564030E+00
  4.79772403E+00  4.82405471E+00  4.86005188E+00  4.89097268E+00  4.94522529E+00
  4.97867894E+00  4.99140334E+00  5.15022468E+00  5.20381415E+00  5.24326370E+00
  5.24883572E+00  5.28746991E+00  5.42797099E+00  5.48074791E+00  5.62164342E+00
  5.68062400E+00  5.70004014E+00  5.88719553E+00  5.94504890E+00  6.14501557E+00
  6.31996879E+00  6.41846147E+00  6.48866338E+00  6.84454207E+00  6.86037643E+00
  7.01742299E+00  7.08848385E+00  9.46453412E+00  1.18541526E+01  1.23063772E+01
  1.31913472E+01
Alpha MO coefficients                      R   N=       30976
  9.75549425E-01 -8.62097867E-03  4.63574052E-02  3.63127935E-03  1.56043068E-03
  5.09397686E-17 -3.76499190E-05 -4.54939551E-04 -3.82939919E-16  1.15979056E-05
  4.12895259E-04  6.66736621E-18 -9.04884170E-06 -2.29283627E-04 -1.07865044E-05
  1.10260857E-15  6.64432860E-05 -5.05284672E-16  1.84278967E-04  1.52608014E-05
 -7.25537159E-16 -3.11220750E-04 -2.36669924E-16 -1.47763423E-07 -3.36005179E-08
  7.19317207E-16  2.01158709E-06  7.43205441E-17 -6.54773948E-05 -8.10106996E-16
 -5.27963591E-05  2.24209959E-04  3.62152486E-04 -8.21273150E-04 -3.79211043E-04
  5.88254061E-17  7.42593315E-06 -3.27296060E-04  2.41423836E-16  1.94991135E-05
  7.41464601E-04 -3.17935568E-16 -1.80463457E-05 -2.13256488E-04 -1.34366657E-05
 -2.25778645E-16  2.16118349E-04 -4.14427845E-16  1.38384979E-03  8.20884948E-05
  6.38312858E-16 -1.00504256E-03 -1.16169068E-16  2.29097100E-05 -3.62049008E-04
 -3.86114074E-16 -2.37621604E-05  4.51617496E-17  3.35775067E-04  4.45276735E-16
  2.24554511E-05  2.23071349E-04  1.07422503E-05 -1.49070396E-04 -6.34958195E-05
 -2.58317074E-17 -4.24948102E-05  3.99649828E-04  8.72361183E-17  2.48474550E-04
  2.59560920E-05  6.00471878E-17  1.22466567E-04 -1.42135794E-05  4.92530679E-05
 -2.89737754E-16  9.14679278E-05  3.75781332E-16  7.93035878E-04 -5.05284670E-04
 -2.00089315E-17 -4.76022282E-04  5.06380346E-16 -1.88534186E-05 -1.36321031E-04
 -4.63032150E-16  6.90693698E-05  2.26106498E-16  7.63246153E-05  5.33058809E-16
  2.06540663E-05  2.08615627E-04  8.67961804E-06 -1.80298456E-04 -6.19377341E-05
  1.39234171E-18  4.40946337E-05  3.54338299E-04  4.56782996E-16 -2.55861839E-04
  1.21444932E-05  2.59830294E-16 -1.26316674E-04 -7.60587124E-06 -5.42592493E-05
 -1.11168761E-16  8.60545130E-05 -1.10855000E-16  7.55703000E-04  5.70827908E-04
  1.99897275E-16 -4.63704133E-04 -1.58235813E-16  3.03829764E-05 -1.26815545E-04
  6.39053099E-17 -7.92933359E-05  1.53168226E-16  6.87485071E-05  3.78940468E-16
 -8.41984157E-05 -7.12016160E-04  4.19612869E-05 -2.36111577E-05  2.36480258E-16
  3.55288035E-05 -3.32407430E-04  1.16304810E-16  8.76545991E-05  3.33961689E-05
  6.51936555E-05 -3.35111808E-16  7.49521848E-06  2.93291741E-16 -6.30208953E-06
  2.44939968E-04 -4.63174131E-05  6.66397549E-05 -3.45426636E-16 -2.36471389E-05
  3.17645151E-05 -4.95660933E-16  1.76923533E-04  2.02333812E-05  2.80598875E-06
 -7.75372781E-17 -6.35420520E-05  6.44037226E-16 -8.37239925E-05 -6.99564580E-04
  4.23892321E-05 -2.54841054E-05 -3.52964626E-16 -3.40795936E-05 -3.37448436E-04
 -6.95257923E-18 -6.77024911E-05  3.95607121E-05 -6.34540775E-05 -3.37861747E-16
  3.90574040E-06 -4.34205063E-17 -5.92221893E-08  2.91338251E-04 -3.80447082E-05
  6.09237745E-05 -1.58099791E-16  1.64697656E-05 -5.25867582E-06 -3.50278695E-17
 -1.64835492E-04  1.81985704E-05  6.37263138E-06 -1.03440141E-16 -6.14918039E-05
  1.78116290E-16 -4.58453239E-04 -8.76197381E-04  8.22422439E-04 -5.06558870E-03
  7.97251448E-04 -1.64844305E-16 -1.90649366E-05 -3.08763444E-03 -4.93180158E-16
  7.54474351E-05 -1.95206976E-03 -1.41161577E-15  5.36450745E-05 -4.01565293E-05
 -2.79197524E-06 -3.18938908E-18  2.44298689E-05  3.79398864E-16  1.27748796E-03
  1.02889715E-04 -1.40327117E-16 -2.06777629E-03 -1.63559250E-15 -2.85570093E-05
  4.99207434E-04  2.97699108E-16  3.40345814E-05 -2.76039620E-16 -5.52458711E-04
 -8.89533509E-16  9.77447614E-01 -1.38915988E-04  4.60548006E-02  5.47151709E-03
 -2.61389192E-04  5.82067246E-16 -8.78451119E-06 -2.04064631E-03  6.08326455E-16
  1.45276860E-04 -6.19524786E-04  1.52901965E-15  3.07164095E-05 -4.38500979E-05
 -3.69484576E-05 -6.12623456E-17  1.71829072E-03 -2.43392045E-16  4.13683543E-04
  5.46117699E-05  1.23705799E-15  4.15781676E-04 -1.25104238E-15 -7.25321451E-05
  1.37352291E-03 -8.09608849E-17  7.58124760E-05 -1.01614494E-16 -8.56720398E-04
  8.69590606E-16  4.39474774E-03 -6.42868755E-05  9.79498201E-04  4.63613429E-04
 -3.88923247E-04  3.65509815E-16 -5.29293644E-04  2.00565680E-03 -5.40431230E-16
  1.92467742E-03  7.49244965E-04 -3.10558421E-16  8.81177412E-04 -2.03099690E-04
 -1.05348935E-04 -2.71247302E-16 -1.80599859E-04  2.06217760E-16 -1.01608295E-03
 -3.03934551E-03 -1.92680861E-16  4.11017596E-04  7.52398105E-16 -3.31515972E-05
  1.13764389E-03 -2.83030836E-16  5.61101714E-04  2.66814473E-16  5.33260481E-05
 -1.66014588E-16  4.54384600E-03 -7.77193761E-05  9.68967028E-04  3.78021855E-04