title                                                                   
Force     UM062X                                                      CC-pVTZ             
Number of atoms                            I                8
Info1-9                                    I   N=           9
          16          16           0           0           0         100
           5          18        -502
Full Title                                 C   N=           1
title       
Route                                      C   N=           6
#m062x/cc-pvtz force fchk NoSym Units=bohr scf=(xqc,tight) i
nt=ultrafine
Charge                                     I                0
Multiplicity                               I                3
Number of electrons                        I               30
Number of alpha electrons                  I               16
Number of beta electrons                   I               14
Number of basis functions                  I              176
Number of independent functions            I              176
Number of point charges in /Mol/           I                0
Number of translation vectors              I                0
Atomic numbers                             I   N=           8
           8           6           6           6           1           1
           1           1
Nuclear charges                            R   N=           8
  8.00000000E+00  6.00000000E+00  6.00000000E+00  6.00000000E+00  1.00000000E+00
  1.00000000E+00  1.00000000E+00  1.00000000E+00
Current cartesian coordinates              R   N=          24
 -2.39418044E+00  0.00000000E+00  4.85750466E-02 -6.36459293E-02  0.00000000E+00
 -2.07009280E-03  1.41169306E+00  0.00000000E+00  2.29777614E+00  1.31059455E+00
  0.00000000E+00 -2.36371911E+00  4.28483892E-01  0.00000000E+00  4.08413666E+00
  3.45124142E+00  0.00000000E+00  2.26578162E+00  2.50953208E-01  0.00000000E+00
 -4.10582953E+00  3.34961270E+00  0.00000000E+00 -2.41980564E+00
Number of symbols in /Mol/                 I                0
Force Field                                I                0
Atom Types                                 C   N=           8
                                                            
                                    
Int Atom Types                             I   N=           8
           0           0           0           0           0           0
           0           0
MM charges                                 R   N=           8
  0.00000000E+00  0.00000000E+00  0.00000000E+00  0.00000000E+00  0.00000000E+00
  0.00000000E+00  0.00000000E+00  0.00000000E+00
Integer atomic weights                     I   N=           8
          16          12          12          12           1           1
           1           1
Real atomic weights                        R   N=           8
  1.59949146E+01  1.20000000E+01  1.20000000E+01  1.20000000E+01  1.00782504E+00
  1.00782504E+00  1.00782504E+00  1.00782504E+00
Atom fragment info                         I   N=           8
           0           0           0           0           0           0
           0           0
Atom residue num                           I   N=           8
           0           0           0           0           0           0
           0           0
Nuclear spins                              I   N=           8
           0           0           0           0           1           1
           1           1
Nuclear ZEff                               R   N=           8
 -5.60000000E+00 -3.60000000E+00 -3.60000000E+00 -3.60000000E+00 -1.00000000E+00
 -1.00000000E+00 -1.00000000E+00 -1.00000000E+00
Nuclear ZNuc                               R   N=           8
  8.00000000E+00  6.00000000E+00  6.00000000E+00  6.00000000E+00  1.00000000E+00
  1.00000000E+00  1.00000000E+00  1.00000000E+00
Nuclear QMom                               R   N=           8
  0.00000000E+00  0.00000000E+00  0.00000000E+00  0.00000000E+00  0.00000000E+00
  0.00000000E+00  0.00000000E+00  0.00000000E+00
Nuclear GFac                               R   N=           8
  0.00000000E+00  0.00000000E+00  0.00000000E+00  0.00000000E+00  2.79284600E+00
  2.79284600E+00  2.79284600E+00  2.79284600E+00
MicOpt                                     I   N=           8
          -1          -1          -1          -1          -1          -1
          -1          -1
Number of residues                         I                0
Number of secondary structures             I                0
Number of contracted shells                I               64
Number of primitive shells                 I              124
Pure/Cartesian d shells                    I                0
Pure/Cartesian f shells                    I                0
Highest angular momentum                   I                3
Largest degree of contraction              I                7
Shell types                                I   N=          64
           0           0           0           0           1           1
           1          -2          -2          -3           0           0
           0           0           1           1           1          -2
          -2          -3           0           0           0           0
           1           1           1          -2          -2          -3
           0           0           0           0           1           1
           1          -2          -2          -3           0           0
           0           1           1          -2           0           0
           0           1           1          -2           0           0
           0           1           1          -2           0           0
           0           1           1          -2
Number of primitives per shell             I   N=          64
           7           6           1           1           3           1
           1           1           1           1           7           6
           1           1           3           1           1           1
           1           1           7           6           1           1
           3           1           1           1           1           1
           7           6           1           1           3           1
           1           1           1           1           3           1
           1           1           1           1           3           1
           1           1           1           1           3           1
           1           1           1           1           3           1
           1           1           1           1
Shell to atom map                          I   N=          64
           1           1           1           1           1           1
           1           1           1           1           2           2
           2           2           2           2           2           2
           2           2           3           3           3           3
           3           3           3           3           3           3
           4           4           4           4           4           4
           4           4           4           4           5           5
           5           5           5           5           6           6
           6           6           6           6           7           7
           7           7           7           7           8           8
           8           8           8           8
Primitive exponents                        R   N=         124
  1.53300000E+04  2.29900000E+03  5.22400000E+02  1.47300000E+02  4.75500000E+01
  1.67600000E+01  6.20700000E+00  5.22400000E+02  1.47300000E+02  4.75500000E+01
  1.67600000E+01  6.20700000E+00  6.88200000E-01  1.75200000E+00  2.38400000E-01
  3.44600000E+01  7.74900000E+00  2.28000000E+00  7.15600000E-01  2.14000000E-01
  2.31400000E+00  6.45000000E-01  1.42800000E+00  8.23600000E+03  1.23500000E+03
  2.80800000E+02  7.92700000E+01  2.55900000E+01  8.99700000E+00  3.31900000E+00
  2.80800000E+02  7.92700000E+01  2.55900000E+01  8.99700000E+00  3.31900000E+00
  3.64300000E-01  9.05900000E-01  1.28500000E-01  1.87100000E+01  4.13300000E+00
  1.20000000E+00  3.82700000E-01  1.20900000E-01  1.09700000E+00  3.18000000E-01
  7.61000000E-01  8.23600000E+03  1.23500000E+03  2.80800000E+02  7.92700000E+01
  2.55900000E+01  8.99700000E+00  3.31900000E+00  2.80800000E+02  7.92700000E+01
  2.55900000E+01  8.99700000E+00  3.31900000E+00  3.64300000E-01  9.05900000E-01
  1.28500000E-01  1.87100000E+01  4.13300000E+00  1.20000000E+00  3.82700000E-01
  1.20900000E-01  1.09700000E+00  3.18000000E-01  7.61000000E-01  8.23600000E+03
  1.23500000E+03  2.80800000E+02  7.92700000E+01  2.55900000E+01  8.99700000E+00
  3.31900000E+00  2.80800000E+02  7.92700000E+01  2.55900000E+01  8.99700000E+00
  3.31900000E+00  3.64300000E-01  9.05900000E-01  1.28500000E-01  1.87100000E+01
  4.13300000E+00  1.20000000E+00  3.82700000E-01  1.20900000E-01  1.09700000E+00
  3.18000000E-01  7.61000000E-01  3.38700000E+01  5.09500000E+00  1.15900000E+00
  3.25800000E-01  1.02700000E-01  1.40700000E+00  3.88000000E-01  1.05700000E+00
  3.38700000E+01  5.09500000E+00  1.15900000E+00  3.25800000E-01  1.02700000E-01
  1.40700000E+00  3.88000000E-01  1.05700000E+00  3.38700000E+01  5.09500000E+00
  1.15900000E+00  3.25800000E-01  1.02700000E-01  1.40700000E+00  3.88000000E-01
  1.05700000E+00  3.38700000E+01  5.09500000E+00  1.15900000E+00  3.25800000E-01
  1.02700000E-01  1.40700000E+00  3.88000000E-01  1.05700000E+00
Contraction coefficients                   R   N=         124
  5.19808943E-04  4.02025621E-03  2.07128267E-02  8.10105536E-02  2.35962985E-01
  4.42653446E-01  3.57064423E-01 -4.42115008E-05 -1.22591041E-03 -1.05517725E-02
 -6.74452633E-02 -1.71198607E-01  1.07329856E+00  1.00000000E+00  1.00000000E+00
  4.11634896E-02  2.57762836E-01  8.02419274E-01  1.00000000E+00  1.00000000E+00
  1.00000000E+00  1.00000000E+00  1.00000000E+00  5.41978320E-04  4.19287382E-03
  2.15221621E-02  8.35343220E-02  2.39582846E-01  4.42852842E-01  3.51799562E-01
 -5.94922494E-05 -1.14815831E-03 -1.00191374E-02 -6.12194923E-02 -1.73269854E-01
  1.07291519E+00  1.00000000E+00  1.00000000E+00  3.94263872E-02  2.44088985E-01
  8.15492009E-01  1.00000000E+00  1.00000000E+00  1.00000000E+00  1.00000000E+00
  1.00000000E+00  5.41978320E-04  4.19287382E-03  2.15221621E-02  8.35343220E-02
  2.39582846E-01  4.42852842E-01  3.51799562E-01 -5.94922494E-05 -1.14815831E-03
 -1.00191374E-02 -6.12194923E-02 -1.73269854E-01  1.07291519E+00  1.00000000E+00
  1.00000000E+00  3.94263872E-02  2.44088985E-01  8.15492009E-01  1.00000000E+00
  1.00000000E+00  1.00000000E+00  1.00000000E+00  1.00000000E+00  5.41978320E-04
  4.19287382E-03  2.15221621E-02  8.35343220E-02  2.39582846E-01  4.42852842E-01
  3.51799562E-01 -5.94922494E-05 -1.14815831E-03 -1.00191374E-02 -6.12194923E-02
 -1.73269854E-01  1.07291519E+00  1.00000000E+00  1.00000000E+00  3.94263872E-02
  2.44088985E-01  8.15492009E-01  1.00000000E+00  1.00000000E+00  1.00000000E+00
  1.00000000E+00  1.00000000E+00  2.54948632E-02  1.90362766E-01  8.52162022E-01
  1.00000000E+00  1.00000000E+00  1.00000000E+00  1.00000000E+00  1.00000000E+00
  2.54948632E-02  1.90362766E-01  8.52162022E-01  1.00000000E+00  1.00000000E+00
  1.00000000E+00  1.00000000E+00  1.00000000E+00  2.54948632E-02  1.90362766E-01
  8.52162022E-01  1.00000000E+00  1.00000000E+00  1.00000000E+00  1.00000000E+00
  1.00000000E+00  2.54948632E-02  1.90362766E-01  8.52162022E-01  1.00000000E+00
  1.00000000E+00  1.00000000E+00  1.00000000E+00  1.00000000E+00
Coordinates of each shell                  R   N=         192
 -2.39418044E+00  0.00000000E+00  4.85750466E-02 -2.39418044E+00  0.00000000E+00
  4.85750466E-02 -2.39418044E+00  0.00000000E+00  4.85750466E-02 -2.39418044E+00
  0.00000000E+00  4.85750466E-02 -2.39418044E+00  0.00000000E+00  4.85750466E-02
 -2.39418044E+00  0.00000000E+00  4.85750466E-02 -2.39418044E+00  0.00000000E+00
  4.85750466E-02 -2.39418044E+00  0.00000000E+00  4.85750466E-02 -2.39418044E+00
  0.00000000E+00  4.85750466E-02 -2.39418044E+00  0.00000000E+00  4.85750466E-02
 -6.36459293E-02  0.00000000E+00 -2.07009280E-03 -6.36459293E-02  0.00000000E+00
 -2.07009280E-03 -6.36459293E-02  0.00000000E+00 -2.07009280E-03 -6.36459293E-02
  0.00000000E+00 -2.07009280E-03 -6.36459293E-02  0.00000000E+00 -2.07009280E-03
 -6.36459293E-02  0.00000000E+00 -2.07009280E-03 -6.36459293E-02  0.00000000E+00
 -2.07009280E-03 -6.36459293E-02  0.00000000E+00 -2.07009280E-03 -6.36459293E-02
  0.00000000E+00 -2.07009280E-03 -6.36459293E-02  0.00000000E+00 -2.07009280E-03
  1.41169306E+00  0.00000000E+00  2.29777614E+00  1.41169306E+00  0.00000000E+00
  2.29777614E+00  1.41169306E+00  0.00000000E+00  2.29777614E+00  1.41169306E+00
  0.00000000E+00  2.29777614E+00  1.41169306E+00  0.00000000E+00  2.29777614E+00
  1.41169306E+00  0.00000000E+00  2.29777614E+00  1.41169306E+00  0.00000000E+00
  2.29777614E+00  1.41169306E+00  0.00000000E+00  2.29777614E+00  1.41169306E+00
  0.00000000E+00  2.29777614E+00  1.41169306E+00  0.00000000E+00  2.29777614E+00
  1.31059455E+00  0.00000000E+00 -2.36371911E+00  1.31059455E+00  0.00000000E+00
 -2.36371911E+00  1.31059455E+00  0.00000000E+00 -2.36371911E+00  1.31059455E+00
  0.00000000E+00 -2.36371911E+00  1.31059455E+00  0.00000000E+00 -2.36371911E+00
  1.31059455E+00  0.00000000E+00 -2.36371911E+00  1.31059455E+00  0.00000000E+00
 -2.36371911E+00  1.31059455E+00  0.00000000E+00 -2.36371911E+00  1.31059455E+00
  0.00000000E+00 -2.36371911E+00  1.31059455E+00  0.00000000E+00 -2.36371911E+00
  4.28483892E-01  0.00000000E+00  4.08413666E+00  4.28483892E-01  0.00000000E+00
  4.08413666E+00  4.28483892E-01  0.00000000E+00  4.08413666E+00  4.28483892E-01
  0.00000000E+00  4.08413666E+00  4.28483892E-01  0.00000000E+00  4.08413666E+00
  4.28483892E-01  0.00000000E+00  4.08413666E+00  3.45124142E+00  0.00000000E+00
  2.26578162E+00  3.45124142E+00  0.00000000E+00  2.26578162E+00  3.45124142E+00
  0.00000000E+00  2.26578162E+00  3.45124142E+00  0.00000000E+00  2.26578162E+00
  3.45124142E+00  0.00000000E+00  2.26578162E+00  3.45124142E+00  0.00000000E+00
  2.26578162E+00  2.50953208E-01  0.00000000E+00 -4.10582953E+00  2.50953208E-01
  0.00000000E+00 -4.10582953E+00  2.50953208E-01  0.00000000E+00 -4.10582953E+00
  2.50953208E-01  0.00000000E+00 -4.10582953E+00  2.50953208E-01  0.00000000E+00
 -4.10582953E+00  2.50953208E-01  0.00000000E+00 -4.10582953E+00  3.34961270E+00
  0.00000000E+00 -2.41980564E+00  3.34961270E+00  0.00000000E+00 -2.41980564E+00
  3.34961270E+00  0.00000000E+00 -2.41980564E+00  3.34961270E+00  0.00000000E+00
 -2.41980564E+00  3.34961270E+00  0.00000000E+00 -2.41980564E+00  3.34961270E+00
  0.00000000E+00 -2.41980564E+00
Constraint Structure                       R   N=          24
 -2.39418044E+00  0.00000000E+00  4.85750466E-02 -6.36459293E-02  0.00000000E+00
 -2.07009280E-03  1.41169306E+00  0.00000000E+00  2.29777614E+00  1.31059455E+00
  0.00000000E+00 -2.36371911E+00  4.28483892E-01  0.00000000E+00  4.08413666E+00
  3.45124142E+00  0.00000000E+00  2.26578162E+00  2.50953208E-01  0.00000000E+00
 -4.10582953E+00  3.34961270E+00  0.00000000E+00 -2.41980564E+00
Num ILSW                                   I              100
ILSW                                       I   N=         100
           1           0           0           0           2           0
           0           0           3           0        4336          -1
           5           1           0           0           2           0
           0           0           1           0           1           0
           1           1           0           0           0           0
           0           0      100000           0          -1           0
           0           0           0           0           0           0
           0           0           0           1           0           0
           0           0           1           0           0           0
           0           0           4          41           0           0
           0           0          55           0           0           0
           0           0           0           0           0           0
           0           0           0           0           0           0
           0           0           0           0           0           0
           0           0           0           0           0           0
           0           0           0           0           0           0
           0           0           0           0
Num RLSW                                   I               41
RLSW                                       R   N=          41
  1.00000000E+00  1.00000000E+00  1.00000000E+00  1.00000000E+00  5.40000000E-01
  0.00000000E+00  0.00000000E+00  1.00000000E+00  0.00000000E+00  0.00000000E+00
  0.00000000E+00  0.00000000E+00  1.00000000E+00  0.00000000E+00  0.00000000E+00
  0.00000000E+00  0.00000000E+00  1.00000000E+00  0.00000000E+00  0.00000000E+00
  0.00000000E+00  0.00000000E+00  1.00000000E+00  0.00000000E+00  0.00000000E+00
  0.00000000E+00  0.00000000E+00  1.00000000E+00  0.00000000E+00  0.00000000E+00
  0.00000000E+00  0.00000000E+00  1.00000000E+00  0.00000000E+00  0.00000000E+00
  0.00000000E+00  0.00000000E+00  0.00000000E+00  1.00000000E+00  1.00000000E+00
  0.00000000E+00
MxBond                                     I                3
NBond                                      I   N=           8
           1           3           3           3           1           1
           1           1
IBond                                      I   N=          24
           2           0           0           1           3           4
           2           5           6           2           7           8
           3           0           0           3           0           0
           4           0           0           4           0           0
RBond                                      R   N=          24
  2.00000000E+00  0.00000000E+00  0.00000000E+00  2.00000000E+00  1.00000000E+00
  1.00000000E+00  1.00000000E+00  1.00000000E+00  1.00000000E+00  1.00000000E+00
  1.00000000E+00  1.00000000E+00  1.00000000E+00  0.00000000E+00  0.00000000E+00
  1.00000000E+00  0.00000000E+00  0.00000000E+00  1.00000000E+00  0.00000000E+00
  0.00000000E+00  1.00000000E+00  0.00000000E+00  0.00000000E+00
Virial Ratio                               R      2.005292111739364E+00
SCF Energy                                 R     -1.918146777049353E+02
Total Energy                               R     -1.918146777049353E+02
S**2                                       R      2.032827431703172E+00
S**2 after annihilation                    R      2.000316951353744E+00
RMS Force                                  R      6.551525395061332E-03
RMS Density                                R      9.462565265594338E-09
Job Status                                 I                1
Nuclear derivative order                   I                1
External E-field                           R   N=          35
  0.00000000E+00  0.00000000E+00  0.00000000E+00  0.00000000E+00  0.00000000E+00
  0.00000000E+00  0.00000000E+00  0.00000000E+00  0.00000000E+00  0.00000000E+00
  0.00000000E+00  0.00000000E+00  0.00000000E+00  0.00000000E+00  0.00000000E+00
  0.00000000E+00  0.00000000E+00  0.00000000E+00  0.00000000E+00  0.00000000E+00
  0.00000000E+00  0.00000000E+00  0.00000000E+00  0.00000000E+00  0.00000000E+00
  0.00000000E+00  0.00000000E+00  0.00000000E+00  0.00000000E+00  0.00000000E+00
  0.00000000E+00  0.00000000E+00  0.00000000E+00  0.00000000E+00  0.00000000E+00
IOpCl                                      I                1
IROHF                                      I                0
Alpha Orbital Energies                     R   N=         176
 -1.96327721E+01 -1.06253476E+01 -1.05725380E+01 -1.05725193E+01 -1.18045737E+00
 -8.84295811E-01 -8.02469137E-01 -6.33296011E-01 -5.63750468E-01 -5.61942351E-01
 -5.15281585E-01 -4.95119449E-01 -4.76962538E-01 -3.57512177E-01 -3.46918508E-01
 -2.90958009E-01  7.55742269E-02  8.11618992E-02  1.19138775E-01  1.19390431E-01
  1.52111033E-01  1.91563999E-01  2.33078358E-01  2.94458009E-01  3.18884821E-01
  3.22057977E-01  3.69314856E-01  3.70287735E-01  3.79448055E-01  4.17755716E-01
  4.19827655E-01  4.46163205E-01  4.94244882E-01  4.95757275E-01  5.04642115E-01
  5.20022313E-01  5.33253798E-01  5.66672297E-01  5.80254425E-01  6.04095182E-01
  6.33740637E-01  7.15449168E-01  7.36704589E-01  7.47852337E-01  7.58158565E-01
  8.25828432E-01  8.56059716E-01  8.74488894E-01  9.11556676E-01  9.25976166E-01
  9.57827833E-01  9.92602983E-01  1.00307332E+00  1.04534675E+00  1.06315280E+00
  1.12435085E+00  1.13793255E+00  1.20450358E+00  1.23497702E+00  1.26626291E+00
  1.30212690E+00  1.31309457E+00  1.33007406E+00  1.35172923E+00  1.35539421E+00
  1.42802570E+00  1.43904644E+00  1.52737130E+00  1.65042835E+00  1.66229261E+00
  1.70698897E+00  1.78969079E+00  1.96774267E+00  1.97238583E+00  2.09907637E+00
  2.11510865E+00  2.12410727E+00  2.13928724E+00  2.21620502E+00  2.23346329E+00
  2.23473155E+00  2.33697900E+00  2.36371389E+00  2.41551424E+00  2.44860948E+00
  2.51469138E+00  2.53782793E+00  2.60214886E+00  2.60488622E+00  2.70824121E+00
  2.71231870E+00  2.72380591E+00  2.75690506E+00  2.77519998E+00  2.77682409E+00
  2.82965667E+00  2.83621207E+00  2.84971274E+00  2.91816662E+00  2.92658282E+00
  2.95876609E+00  2.99262988E+00  3.02891319E+00  3.07181982E+00  3.08175232E+00
  3.08925073E+00  3.09732649E+00  3.17162105E+00  3.20026141E+00  3.20387603E+00
  3.21911284E+00  3.26303027E+00  3.35141651E+00  3.38910816E+00  3.40022890E+00
  3.41155406E+00  3.47162982E+00  3.47215296E+00  3.54977645E+00  3.58720849E+00
  3.62517888E+00  3.66281534E+00  3.68368590E+00  3.71049357E+00  3.74046946E+00
  3.85581164E+00  3.87265041E+00  3.88636340E+00  3.90342774E+00  3.90501058E+00
  3.91781597E+00  3.97555918E+00  4.01259161E+00  4.02240576E+00  4.07486260E+00
  4.11424128E+00  4.11567707E+00  4.17675858E+00  4.18504017E+00  4.30940687E+00
  4.41553410E+00  4.49898994E+00  4.58847686E+00  4.71270750E+00  4.74063372E+00
  4.76480112E+00  4.79851833E+00  4.81323057E+00  4.81516904E+00  4.91777381E+00
  4.92192732E+00  4.95214675E+00  5.10819153E+00  5.17566431E+00  5.19399957E+00
  5.21810008E+00  5.24546066E+00  5.41036358E+00  5.42474247E+00  5.60118630E+00
  5.63117892E+00  5.66283319E+00  5.86477615E+00  5.88815307E+00  6.10751581E+00
  6.31039898E+00  6.34474081E+00  6.44467043E+00  6.80458306E+00  6.83810691E+00
  6.99750764E+00  7.08795293E+00  9.59696669E+00  1.19707192E+01  1.23546784E+01
  1.33092152E+01
Beta Orbital Energies                      R   N=         176
 -1.96244575E+01 -1.06273670E+01 -1.05665552E+01 -1.05665484E+01 -1.15740233E+00
 -8.50589906E-01 -7.63589564E-01 -6.17330592E-01 -5.51818697E-01 -5.45656034E-01
 -4.82568497E-01 -4.66974942E-01 -4.47857109E-01 -3.37445731E-01 -9.94274032E-02
 -3.97590363E-02  7.52835089E-02  1.17617146E-01  1.17763335E-01  1.22371742E-01
  1.53901637E-01  1.84683899E-01  2.30752149E-01  2.85045705E-01  3.18652103E-01
  3.19839446E-01  3.49149601E-01  3.67249350E-01  3.93087299E-01  4.03780644E-01
  4.25923469E-01  4.48259366E-01  4.91545983E-01  4.94307447E-01  5.00953483E-01
  5.06702793E-01  5.55946495E-01  5.71599307E-01  5.96362765E-01  6.01503173E-01
  6.26851642E-01  7.24386376E-01  7.27066269E-01  7.50157158E-01  7.57931737E-01
  8.30951340E-01  8.46443267E-01  8.68501646E-01  9.12509826E-01  9.15954660E-01
  9.56169362E-01  9.80252211E-01  9.87702592E-01  1.03879785E+00  1.07052438E+00
  1.12829385E+00  1.14267098E+00  1.20444880E+00  1.24131901E+00  1.27534072E+00
  1.31082633E+00  1.31759519E+00  1.34077047E+00  1.35761307E+00  1.35845267E+00
  1.42738979E+00  1.45245239E+00  1.54147245E+00  1.66535305E+00  1.67566511E+00
  1.73096120E+00  1.81046909E+00  1.97795577E+00  1.99323407E+00  2.10406087E+00
  2.12511643E+00  2.14611286E+00  2.20358541E+00  2.23334348E+00  2.24375384E+00
  2.24394532E+00  2.35435367E+00  2.37941733E+00  2.43339127E+00  2.50532306E+00
  2.55873254E+00  2.57105942E+00  2.62336690E+00  2.62503605E+00  2.71746157E+00
  2.73641572E+00  2.78241105E+00  2.81052756E+00  2.81082502E+00  2.81844328E+00
  2.87485541E+00  2.87487761E+00  2.89997997E+00  2.95706616E+00  2.97685071E+00
  2.99487510E+00  3.04439412E+00  3.06789501E+00  3.11021444E+00  3.11943794E+00
  3.12342935E+00  3.12464604E+00  3.19288478E+00  3.20608520E+00  3.22146790E+00
  3.23484922E+00  3.28471213E+00  3.37253614E+00  3.40729646E+00  3.43008858E+00
  3.44355338E+00  3.49998351E+00  3.50167548E+00  3.57552108E+00  3.59846156E+00
  3.63735722E+00  3.67878325E+00  3.69637483E+00  3.72690085E+00  3.76640456E+00
  3.87146967E+00  3.88581558E+00  3.90456794E+00  3.92262694E+00  3.93009400E+00
  3.93741562E+00  3.99484195E+00  4.03341665E+00  4.04697278E+00  4.10021289E+00
  4.14012358E+00  4.16412510E+00  4.21240519E+00  4.22065192E+00  4.33030133E+00
  4.46257963E+00  4.53106619E+00  4.61337896E+00  4.76506392E+00  4.80279042E+00
  4.80640277E+00  4.83338134E+00  4.84819267E+00  4.88962183E+00  4.95537228E+00
  4.98270909E+00  4.99006981E+00  5.16008929E+00  5.21084992E+00  5.24883831E+00
  5.24912224E+00  5.29881666E+00  5.47912394E+00  5.48986208E+00  5.63165666E+00
  5.70206385E+00  5.70943123E+00  5.91609183E+00  5.94971843E+00  6.14726957E+00
  6.33621831E+00  6.42376762E+00  6.49304733E+00  6.86393816E+00  6.86457276E+00
  7.02054913E+00  7.09973150E+00  9.60870884E+00  1.19871553E+01  1.23639432E+01
  1.33260879E+01
Alpha MO coefficients                      R   N=       30976
  9.75533945E-01 -8.62427547E-03  4.63906995E-02  3.71013118E-03  1.55459865E-03
  5.12333263E-16 -3.37852226E-05 -4.45812445E-04 -4.16111132E-16  9.65945828E-06
  4.41106807E-04  1.28657803E-15 -9.59156510E-06 -2.31295807E-04 -9.96215667E-06
  8.00038190E-16  5.71403328E-05 -4.14046617E-16  1.77824877E-04  1.34950123E-05
 -4.82949104E-16 -3.13157197E-04  1.13773056E-15  1.00601174E-07 -1.95297087E-06
  6.92669009E-17  1.75308150E-06  2.66563812E-16 -6.84263776E-05  1.22395276E-15
 -4.33956813E-05  2.68476723E-04  3.43906134E-04 -7.33639574E-04 -3.74565496E-04
 -4.53506417E-17  8.11874237E-06 -3.61314226E-04 -7.07804621E-16  8.02304206E-06
  7.74551261E-04 -5.09342769E-16 -1.68102525E-05 -2.21314764E-04 -1.31504318E-05
 -4.30254812E-17  2.21922688E-04  4.22547554E-16  1.54041200E-03  8.11509169E-05
  1.49017467E-16 -1.06736257E-03  8.07372817E-16  1.96687949E-05 -3.68313438E-04
  1.90920086E-16 -2.15060225E-05  3.74017429E-17  3.31497228E-04 -6.49536558E-16
  2.03370430E-05  2.14278048E-04  9.33183278E-06 -1.54013344E-04 -7.27884531E-05
  5.66543279E-17 -4.64600888E-05  4.79162190E-04 -2.31594008E-16  2.92267859E-04
  3.80803562E-05  1.81230266E-16  1.43422971E-04 -1.23337887E-05  4.84504263E-05
  1.30266941E-16  9.11650047E-05 -3.44939851E-16  8.42516296E-04 -5.87085709E-04
  1.83345665E-16 -4.91461106E-04 -6.26559600E-17 -3.19940005E-05 -1.43453920E-04
  3.80987851E-16  8.10532720E-05 -1.90016944E-16  7.97630916E-05 -3.79079502E-16
  2.03397467E-05  2.14267353E-04  9.30161584E-06 -1.54000543E-04 -7.06900477E-05
 -1.20734002E-17  4.95657090E-05  4.65756406E-04  5.51169423E-17 -3.12581489E-04
  3.17983982E-05  2.21871574E-17 -1.44928793E-04 -8.52241566E-06 -5.31524928E-05
  6.93627617E-17  8.89560366E-05  1.37410672E-16  7.95443050E-04  6.69273368E-04
 -4.85612963E-17 -4.64276168E-04 -6.47823652E-17  4.66202532E-05 -1.33220870E-04
 -1.61188704E-17 -9.45955769E-05 -5.43225624E-17  7.50667496E-05  2.03960639E-17
 -8.14207418E-05 -7.88470325E-04  3.39563064E-05 -2.67649138E-05 -2.21724085E-16
  3.47764894E-05 -3.58038311E-04 -1.74253769E-16  1.10283907E-04  3.32422036E-05
  6.70392391E-05  1.49563110E-16  3.76186535E-06 -3.05505208E-16 -5.27257752E-06
  2.27957850E-04 -5.74642562E-05  7.04131596E-05  5.22038732E-16 -2.39522693E-05
  4.47118359E-05 -1.66454236E-17  1.89107052E-04  2.14582829E-05  2.20511371E-06
  6.87508824E-17 -6.85648864E-05 -4.21503239E-16 -8.14306981E-05 -7.88467332E-04
  3.39654431E-05 -2.82481727E-05  1.45591584E-16 -3.35818234E-05 -3.62511645E-04
 -8.01963975E-17 -9.46241329E-05  3.82083821E-05 -6.44698550E-05  1.05904621E-16
  9.05144125E-07  4.15546223E-17 -5.26968860E-06  2.28210134E-04 -5.74565789E-05
  7.13523445E-05 -3.72827752E-17  2.08844073E-05  3.63451346E-05 -1.32266260E-17
 -1.90948654E-04  2.14412672E-05  2.38254918E-06 -6.57609521E-18 -6.85266887E-05
  1.37649256E-16 -4.45421008E-04 -8.18147798E-04  8.16421850E-04 -4.79177064E-03
  7.84771256E-04  3.58228778E-16 -1.70677219E-05 -2.99200881E-03 -4.30289156E-16
  6.50979483E-05 -1.84732731E-03  1.58578856E-15  4.02678885E-05 -3.92306126E-05
 -1.99546345E-06  1.28287713E-16  2.34777166E-05 -9.43896585E-16  1.26461274E-03
  9.21626272E-05 -8.53292165E-16 -2.04332289E-03  1.41958479E-15 -2.72437050E-05
  5.10577768E-04  1.00533224E-16  3.24310347E-05  2.76882482E-16 -5.57117934E-04
  6.98128730E-16  9.77507740E-01  5.75453790E-04  4.61385474E-02  5.98833998E-03
 -2.96417416E-04 -1.56775565E-16  6.47749661E-06 -1.46397675E-03 -6.10326733E-16
  3.21334784E-05 -4.99961671E-04 -4.06175571E-16  1.07555105E-05  7.13498018E-05
 -3.51771592E-05 -2.01593831E-16  1.73876254E-03  1.15713332E-16  6.74570146E-04
  1.85277164E-05  1.11618796E-15  3.26657610E-04  1.21167073E-15 -7.78669929E-05
  1.46441833E-03 -5.42799772E-17  7.26078434E-05  1.34689938E-16 -8.38641934E-04
 -4.82448697E-16  5.26056055E-03 -2.73647804E-04  1.07398219E-03  2.54050467E-04
 -3.96905288E-04  2.40867185E-16 -5.63642588E-04  2.23771421E-03 -9.33540274E-16
  2.39036574E-03  8.58092606E-04 -2.48044630E-16  1.01609162E-03 -2.48994437E-04
 -1.68892776E-04 -7.46816741E-17 -2.01469229E-04 -3.85612822E-16 -1.16678299E-03
 -3.24786104E-03  7.48003431E-16  4.59336856E-04  2.81861743E-16  3.31753160E-05
  1.20789844E-03  1.08586106E-16  5.59997495E-04  1.56938219E-16  4.75066015E-05
 -4.41131205E-16  5.26094324E-03 -2.73458666E-04  1.07393069E-03  2.54130590E-04