
 Nodes     nprocs
 knl-0005    13
 Number of processes for MPI-2 version of Molpro:   nprocs(total)=   14   nprocs(compute)=   13   nprocs(helper)=    1

 Using customized tuning parameters: mindgm=7; mindgv=16; mindgc=1; mindgr=1; noblas=0; minvec=7
 default implementation of scratch files=df  

 ***,title
 memory,100,m
 
 nosym
 geometry
            8
  ANT Direct Dynamics Calculation
 O          -1.2896791832       -0.0000000000        0.0300906673
 C          -0.0582295054        0.0000000000        0.0015704130
 C           0.7475477103       -0.3000000000        1.2249807728
 C           0.6924144851       -0.0000000000       -1.2580889187
 H           0.2475810715       -0.0000000000        2.1744174767
 H           1.8205112335        0.0000000000        1.1942756916
 H           0.1502277313       -0.0000000000       -2.1847871950
 H           1.7879717898        0.0000000000       -1.2857303992
 end
 
 nn(1)=1
 nn(2)=2
 nn(3)=3
 nn(4)=4
 nn(5)=5
 nn(6)=6
 nn(7)=7
 nn(8)=8
 
 basis=vtz-f12
                                                                                 !basis=vqz-f12
 {rhf;wf,30,1,2}
 {rmp2;wf,30,1,2}
                                                                                 !{ccsd(t)-f12;wf,30,1,2}
 molpro_energy=energy(1)
 force
 varsav
 text,MOLGRAD
 table,nn,gradx,grady,gradz
 ftyp,f,d,d,d
 

 Variables initialized (889), CPU time= 0.03 sec
 Commands  initialized (702), CPU time= 0.05 sec, 572 directives.
 Default parameters read. Elapsed time= 0.48 sec

 Checking input...
 Passed
1


                                         ***  PROGRAM SYSTEM MOLPRO  ***
                                       Copyright, TTI GmbH Stuttgart, 2015
                                    Version 2015.1 linked Sep 21 2017 09:51:13


 **********************************************************************************************************************************
 LABEL *   title                                                                         
  64 bit mppx version                                                                    DATE: 22-May-18          TIME: 12:56:49  
 **********************************************************************************************************************************

 SHA1:             f86d681fdec979508940bfbbc93fd7db66630888
 **********************************************************************************************************************************

 Variable memory set to  100000000 words,  buffer space   230000 words

 ZSYMEL=NOSYM
 

Geometry recognized as XYZ

 SETTING NN(1)          =         1.00000000                                  
 SETTING NN(2)          =         2.00000000                                  
 SETTING NN(3)          =         3.00000000                                  
 SETTING NN(4)          =         4.00000000                                  
 SETTING NN(5)          =         5.00000000                                  
 SETTING NN(6)          =         6.00000000                                  
 SETTING NN(7)          =         7.00000000                                  
 SETTING NN(8)          =         8.00000000                                  
 SETTING BASIS          =    VTZ-F12


 Recomputing integrals since basis changed


 Using spherical harmonics

 Library entry O      S cc-pVTZ-F12          selected for orbital group  1
 Library entry O      P cc-pVTZ-F12          selected for orbital group  1
 Library entry O      D cc-pVTZ-F12          selected for orbital group  1
 Library entry O      F cc-pVTZ-F12          selected for orbital group  1
 Library entry C      S cc-pVTZ-F12          selected for orbital group  2
 Library entry C      P cc-pVTZ-F12          selected for orbital group  2
 Library entry C      D cc-pVTZ-F12          selected for orbital group  2
 Library entry C      F cc-pVTZ-F12          selected for orbital group  2
 Library entry H      S cc-pVTZ-F12          selected for orbital group  3
 Library entry H      P cc-pVTZ-F12          selected for orbital group  3
 Library entry H      D cc-pVTZ-F12          selected for orbital group  3


 PROGRAM * SEWARD (Integral evaluation for generally contracted gaussian basis sets)     Author: Roland Lindh, 1990

 Geometry written to block  1 of record 700


 Point group  C1  



 ATOMIC COORDINATES

 NR  ATOM    CHARGE       X              Y              Z

   1  O       8.00   -2.437140445    0.000000000    0.056863120
   2  C       6.00   -0.110037818    0.000000000    0.002967650
   3  C       6.00    1.412660438   -0.566917837    2.314878168
   4  C       6.00    1.308473742    0.000000000   -2.377443497
   5  H       1.00    0.467860419    0.000000000    4.109053511
   6  H       1.00    3.440267638    0.000000000    2.256853974
   7  H       1.00    0.283889268    0.000000000   -4.128649439
   8  H       1.00    3.378777001    0.000000000   -2.429678325

 Bond lengths in Bohr (Angstrom)

 1-2  2.327726650  2-3  2.825762915  2-4  2.771016469  3-5  2.105494733  3-6  2.106170364
     ( 1.231779897)     ( 1.495329338)     ( 1.466358767)     ( 1.114179830)     ( 1.114537359)

 4-7  2.028914881  4-8  2.070962111
     ( 1.073655518)     ( 1.095905954)

 Bond angles

  1-2-3  121.31715681   1-2-4  122.11787779   2-3-5  113.66310638   2-3-6  116.24563534

  2-4-7  118.87807126   2-4-8  122.23644599   3-2-4  115.27588153   5-3-6  112.51918403

  7-4-8  118.88548275

 NUCLEAR CHARGE:                   30
 NUMBER OF PRIMITIVE AOS:         372
 NUMBER OF SYMMETRY AOS:          332
 NUMBER OF CONTRACTIONS:          284   ( 284A   )
 NUMBER OF CORE ORBITALS:           4   (   4A   )
 NUMBER OF VALENCE ORBITALS:       20   (  20A   )


 NUCLEAR REPULSION ENERGY  103.76324695


 Eigenvalues of metric

         1 0.813E-04 0.960E-04 0.106E-03 0.146E-03 0.183E-03 0.192E-03 0.230E-03 0.242E-03


 Contracted 2-electron integrals neglected if value below      1.0D-11
 AO integral compression algorithm  1   Integral accuracy      1.0D-11

 ERROR WRITING        32768 WORDS AT OFFSET     154859792. TO FILE 1  IMPLEMENTATION=df   FILE HANDLE=  1029  IERR=     -260224

 Records on file 1

 IREC   NAME  TYPE            OFFSET         LENGTH    IMPLEMENTATION   EXT   PREV   PARENT  MPP_STATE
   1     500  VAR               4096.        138402.         df          0      0      0      0
   2     610  BASINP          142498.          8192.         df          0      0      0      0
   3     700  GEOM            150690.         37980.         df          0      0      0      0
   4     900  SYMINP          188670.           715.         df          0      0      0      0
   5     950  ZMAT            189385.           316.         df          0      0      0      0
   6     970  AOBASIS         189701.          1176.         df          0      0      0      0
   7    1000  BASIS           190877.          6074.         df          0      0      0      0
   8     129  P2S             196951.          1144.         df          0      0      0      0
   9     960  ABASIS          198095.          8192.         df          0      0      0      0
  10    1100  S               206287.         40472.         df          0      0      0      0
  11    1400  T               246759.         40472.         df          0      0      0      0
  12    1410  V               287231.         40472.         df          0      0      0      0
  13    1200  H0              327703.         40472.         df          0      0      0      0
  14    1210  H01             368175.         40472.         df          0      0      0      0
  15    1080  AOSYM           408647.           292.         df          0      0      0      0
  16    1600  SMH             408939.         40470.         df          0      0      0      0
  17    1650  MOLCAS          449409.       2203023.         df          0      0      0      0
  18    1290  ERIS           2652432.     152240128.         df          0      0      0      0
 
 File= 1  SIZE=     1.24 GB
 File= 2  SIZE=     0.00 GB
 File= 3  SIZE=     0.00 GB

 Total disk space used:     1.24 GB
 ? Error
 ? I/O error. Perhaps full disk?
 ? The problem occurs in writew

 GLOBAL ERROR fehler on processor  10                                         
