
 Nodes     nprocs
 knld-0034    7
 Number of processes for MPI-2 version of Molpro:   nprocs(total)=    8   nprocs(compute)=    7   nprocs(helper)=    1

 Using customized tuning parameters: mindgm=7; mindgv=16; mindgc=1; mindgr=1; noblas=0; minvec=7
 default implementation of scratch files=df  

 ***,title
 memory,1000,m
 
 nosym
 geometry
            8
  ANT Direct Dynamics Calculation
 O          -1.3275979119       -0.0014089823        0.0010180168
 C          -0.0973410765       -0.0001601232        0.0049732766
 C           0.7551802219       -1.1656049075       -0.0024276676
 C           0.7524457586        1.1672474344       -0.0025403578
 H           0.3113973022       -2.1534147529       -0.0315211687
 H           1.8315757634       -1.0736148854        0.0296672158
 H           0.3056346032        2.1536752530       -0.0307094400
 H           1.8292947388        1.0780652084        0.0226450368
 end
 
 nn(1)=1
 nn(2)=2
 nn(3)=3
 nn(4)=4
 nn(5)=5
 nn(6)=6
 nn(7)=7
 nn(8)=8
 
 basis=vtz
                                                                                 !basis=vqz-f12
 {rhf;wf,30,1,0}
 {rmp2;wf,30,1,0}
                                                                                 !{ccsd(t)-f12;wf,30,1,0}
 molpro_energy=energy(1)
 force
 varsav
 text,MOLGRAD
 table,nn,gradx,grady,gradz
 ftyp,f,d,d,d
 

 Variables initialized (889), CPU time= 0.03 sec
 Commands  initialized (702), CPU time= 0.05 sec, 572 directives.
 Default parameters read. Elapsed time= 0.40 sec

 Checking input...
 Passed
1


                                         ***  PROGRAM SYSTEM MOLPRO  ***
                                       Copyright, TTI GmbH Stuttgart, 2015
                                    Version 2015.1 linked Sep 21 2017 09:51:13


 **********************************************************************************************************************************
 LABEL *   title                                                                         
  64 bit mppx version                                                                    DATE: 24-May-18          TIME: 10:51:50  
 **********************************************************************************************************************************

 SHA1:             f86d681fdec979508940bfbbc93fd7db66630888
 **********************************************************************************************************************************

 Variable memory set to 1000000000 words,  buffer space   230000 words

 ZSYMEL=NOSYM
 

Geometry recognized as XYZ

 SETTING NN(1)          =         1.00000000                                  
 SETTING NN(2)          =         2.00000000                                  
 SETTING NN(3)          =         3.00000000                                  
 SETTING NN(4)          =         4.00000000                                  
 SETTING NN(5)          =         5.00000000                                  
 SETTING NN(6)          =         6.00000000                                  
 SETTING NN(7)          =         7.00000000                                  
 SETTING NN(8)          =         8.00000000                                  
 SETTING BASIS          =    VTZ


 Recomputing integrals since basis changed


 Using spherical harmonics

 Library entry O      S cc-pVTZ              selected for orbital group  1
 Library entry O      P cc-pVTZ              selected for orbital group  1
 Library entry O      D cc-pVTZ              selected for orbital group  1
 Library entry O      F cc-pVTZ              selected for orbital group  1
 Library entry C      S cc-pVTZ              selected for orbital group  2
 Library entry C      P cc-pVTZ              selected for orbital group  2
 Library entry C      D cc-pVTZ              selected for orbital group  2
 Library entry C      F cc-pVTZ              selected for orbital group  2
 Library entry H      S cc-pVTZ              selected for orbital group  3
 Library entry H      P cc-pVTZ              selected for orbital group  3
 Library entry H      D cc-pVTZ              selected for orbital group  3


 PROGRAM * SEWARD (Integral evaluation for generally contracted gaussian basis sets)     Author: Roland Lindh, 1990

 Geometry written to block  1 of record 700


 Point group  C1  



 ATOMIC COORDINATES

 NR  ATOM    CHARGE       X              Y              Z

   1  O       8.00   -2.508796457   -0.002662591    0.001923773
   2  C       6.00   -0.183947975   -0.000302589    0.009398131
   3  C       6.00    1.427083794   -2.202674045   -0.004587627
   4  C       6.00    1.421916407    2.205777971   -0.004800581
   5  H       1.00    0.588455617   -4.069364116   -0.059566376
   6  H       1.00    3.461176569   -2.028838097    0.056062913
   7  H       1.00    0.577565694    4.069856389   -0.058032431
   8  H       1.00    3.456866057    2.037247988    0.042792918

 Bond lengths in Bohr (Angstrom)

 1-2  2.324861695  2-3  2.728746780  2-4  2.728698124  3-5  2.047156981  3-6  2.042408099
     ( 1.230263827)     ( 1.443990611)     ( 1.443964863)     ( 1.083308821)     ( 1.080795821)

 4-7  2.047083317  4-8  2.042470948
     ( 1.083269840)     ( 1.080829080)

 Bond angles

  1-2-3  126.12532375   1-2-4  126.10805745   2-3-5  119.61902294   2-3-6  121.27470139

  2-4-7  119.57704607   2-4-8  121.29949168   3-2-4  107.76062214   5-3-6  119.10389570

  7-4-8  119.12316554

 NUCLEAR CHARGE:                   30
 NUMBER OF PRIMITIVE AOS:         256
 NUMBER OF SYMMETRY AOS:          232
 NUMBER OF CONTRACTIONS:          176   ( 176A   )
 NUMBER OF CORE ORBITALS:           4   (   4A   )
 NUMBER OF VALENCE ORBITALS:       20   (  20A   )


 NUCLEAR REPULSION ENERGY  105.34988013


 Eigenvalues of metric

         1 0.703E-03 0.785E-03 0.118E-02 0.139E-02 0.146E-02 0.171E-02 0.203E-02 0.210E-02


 Contracted 2-electron integrals neglected if value below      1.0D-11
 AO integral compression algorithm  1   Integral accuracy      1.0D-11

     470.286 MB (compressed) written to integral file ( 43.6%)


 NUMBER OF SORTED TWO-ELECTRON INTEGRALS:  121313676.     BUFFER LENGTH:  32768
 NUMBER OF SEGMENTS:   8  SEGMENT LENGTH:   15999503      RECORD LENGTH: 524288

 Memory used in sort:      16.56 MW

 SORT1 READ   134794175. AND WROTE   112003892. INTEGRALS IN    324 RECORDS. CPU TIME:     7.77 SEC, REAL TIME:    10.74 SEC
 SORT2 READ   112003892. AND WROTE   121313676. INTEGRALS IN   1794 RECORDS. CPU TIME:     8.19 SEC, REAL TIME:     9.95 SEC

 FILE SIZES:   FILE 1:   490.6 MBYTE,  FILE 4:  1359.0 MBYTE,   TOTAL:   1849.6 MBYTE

 OPERATOR DM      FOR CENTER  0  COORDINATES:    0.000000    0.000000    0.000000


 **********************************************************************************************************************************
 DATASETS  * FILE   NREC   LENGTH (MB)   RECORD NAMES
              1      19      443.04       500      610      700      900      950      970     1000      129      960     1100   
                                          VAR    BASINP    GEOM    SYMINP    ZMAT    AOBASIS   BASIS     P2S    ABASIS      S 
                                         1400     1410     1200     1210     1080     1600     1650     1300     1700   
                                           T        V       H0       H01     AOSYM     SMH    MOLCAS    ERIS     OPER   

 PROGRAMS   *        TOTAL       INT
 CPU TIMES  *        48.58     47.85
 REAL TIME  *        56.29 SEC
 DISK USED  *         1.85 GB      
 **********************************************************************************************************************************


 PROGRAM * RHF-SCF (CLOSED SHELL)       Authors: W. Meyer, H.-J. Werner


 NUMBER OF ELECTRONS:      15+   15-    SPACE SYMMETRY=1    SPIN SYMMETRY: Singlet 
 CONVERGENCE THRESHOLDS:    1.00E-06 (Density)    1.00E-07 (Energy)
 MAX. NUMBER OF ITERATIONS:       60
 INTERPOLATION TYPE:            DIIS
 INTERPOLATION STEPS:              2 (START)      1 (STEP)
 LEVEL SHIFTS:                  0.00 (CLOSED)  0.00 (OPEN) 



 Orbital guess generated from atomic densities. Full valence occupancy:   24

 Molecular orbital dump at record        2100.2

 Initial occupancy:  15

 ITERATION    DDIFF          GRAD             ENERGY        2-EL.EN.            DIPOLE MOMENTS         DIIS   ORB.
    1      0.000D+00      0.000D+00      -190.61100398    345.524698    3.32215    0.00324   -0.00725    0    start
    2      0.000D+00      0.671D-02      -190.66680702    341.600416    1.53640    0.00194    0.00760    1    diag
    3      0.111D-01      0.535D-02      -190.71592602    343.415035    2.18749    0.00225    0.00395    2    diag
    4      0.485D-02      0.546D-03      -190.71705252    343.391750    2.16448    0.00240    0.00333    3    diag
    5      0.718D-03      0.107D-03      -190.71709409    343.347963    2.15538    0.00228    0.00380    4    diag
    6      0.160D-03      0.315D-04      -190.71709692    343.360133    2.15686    0.00238    0.00364    5    diag
    7      0.494D-04      0.904D-05      -190.71709729    343.355525    2.15652    0.00233    0.00361    6    diag
    8      0.175D-04      0.246D-05      -190.71709733    343.356370    2.15664    0.00240    0.00359    7    diag
    9      0.604D-05      0.626D-06      -190.71709734    343.356198    2.15661    0.00233    0.00357    8    diag
   10      0.133D-05      0.299D-06      -190.71709734    343.356243    2.15660    0.00239    0.00357    9    orth
   11      0.572D-06      0.190D-06      -190.71709734    343.356244    2.15661    0.00235    0.00356    0    orth

 Final occupancy:  15

 !RHF STATE 1.1 Energy               -190.717097340169
 Nuclear energy                       105.34988013
 One-electron energy                 -467.74509955
 Two-electron energy                  171.67812208
 Virial quotient                       -1.00150906
 !RHF STATE 1.1 Dipole moment           2.15660637     0.00234856     0.00356389
 Dipole moment /Debye                   5.48118762     0.00596906     0.00905790

 Orbital energies:

         1.1          2.1          3.1          4.1          5.1          6.1          7.1          8.1          9.1         10.1
    -20.460375   -11.315025   -11.314938   -11.308608    -1.321776    -1.066108    -0.949080    -0.761750    -0.674135    -0.664255

        11.1         12.1         13.1         14.1         15.1         16.1         17.1
     -0.577776    -0.562044    -0.523330    -0.386411    -0.308816    -0.022247     0.129398

 HOMO     15.1    -0.308816 =      -8.4033eV
 LUMO     16.1    -0.022247 =      -0.6054eV
 LUMO-HOMO         0.286570 =       7.7980eV


 **********************************************************************************************************************************
 DATASETS  * FILE   NREC   LENGTH (MB)   RECORD NAMES
              1      19      443.04       500      610      700      900      950      970     1000      129      960     1100   
                                          VAR    BASINP    GEOM    SYMINP    ZMAT    AOBASIS   BASIS     P2S    ABASIS      S 
                                         1400     1410     1200     1210     1080     1600     1650     1300     1700   
                                           T        V       H0       H01     AOSYM     SMH    MOLCAS    ERIS     OPER   

              2       4        3.51       700     1000      520     2100   
                                         GEOM     BASIS   MCVARS     RHF  

 PROGRAMS   *        TOTAL       RHF       INT
 CPU TIMES  *        99.75     51.16     47.85
 REAL TIME  *       109.04 SEC
 DISK USED  *         1.85 GB      
 **********************************************************************************************************************************


 PROGRAM * RMP2 (Restricted open-shell)     Authors: H.-J. Werner, 2001


 Convergence thresholds:  THRVAR = 1.00D-12  THRDEN = 1.00D-08

 Number of core orbitals:           4 (   4 )
 Number of closed-shell orbitals:  11 (  11 )
 Number of external orbitals:     161 ( 161 )

 Reading UHF information from record   2100.2

                               TOTAL       A-A         B-B         A-B
 Pair energies:            -0.72570482 -0.08782306 -0.08782306 -0.55005871
 Singles energies:         -0.00000000 -0.00000000 -0.00000000

 Reference energy                    -190.717097340170
 Correlation energy                    -0.725704819712
 !RMP2 STATE 1.1 Energy              -191.442802159881


 **********************************************************************************************************************************
 DATASETS  * FILE   NREC   LENGTH (MB)   RECORD NAMES
              1      19      443.04       500      610      700      900      950      970     1000      129      960     1100   
                                          VAR    BASINP    GEOM    SYMINP    ZMAT    AOBASIS   BASIS     P2S    ABASIS      S 
                                         1400     1410     1200     1210     1080     1600     1650     1300     1700   
                                           T        V       H0       H01     AOSYM     SMH    MOLCAS    ERIS     OPER   

              2       4        3.51       700     1000      520     2100   
                                         GEOM     BASIS   MCVARS     RHF  

 PROGRAMS   *        TOTAL      RMP2       RHF       INT
 CPU TIMES  *       109.69      9.94     51.16     47.85
 REAL TIME  *       119.60 SEC
 DISK USED  *         1.85 GB      
 **********************************************************************************************************************************
 SETTING MOLPRO_ENERGY  =      -191.44280216  AU                              


 Computing numerical gradient using default procedure for command RMP2

 *** Long output written to logfile /blues/gpfs/home/ajasper/nst/nst_release_2016_06_28/runs/mebel4x/qc.log_003 ***


 Running default procedure: RHF-SCF000  RMP2
 

 Generated  18 symmetrical displacements
