title                                                                   
SP        UM062X                                                      CC-pVTZ             
Number of atoms                            I                8
Info1-9                                    I   N=           9
          17          17           0           0           0         110
           1          18        -502
Full Title                                 C   N=           1
title       
Route                                      C   N=           7
#um062x/cc-pvtz fchk NoSym Units=bohr scf=(xqc,tight) #int=u
ltrafine guess=mix      
Charge                                     I                0
Multiplicity                               I                1
Number of electrons                        I               30
Number of alpha electrons                  I               15
Number of beta electrons                   I               15
Number of basis functions                  I              176
Number of independent functions            I              176
Number of point charges in /Mol/           I                0
Number of translation vectors              I                0
Atomic numbers                             I   N=           8
           8           6           6           6           1           1
           1           1
Nuclear charges                            R   N=           8
  8.00000000E+00  6.00000000E+00  6.00000000E+00  6.00000000E+00  1.00000000E+00
  1.00000000E+00  1.00000000E+00  1.00000000E+00
Current cartesian coordinates              R   N=          24
 -2.43714114E+00  0.00000000E+00  5.68631363E-02 -1.10037849E-01  0.00000000E+00
  2.96765130E-03  1.41266084E+00  0.00000000E+00  2.31487883E+00  1.30847411E+00
  0.00000000E+00 -2.37744417E+00  4.67860552E-01  0.00000000E+00  4.10905468E+00
  3.44026862E+00  0.00000000E+00  2.25685462E+00  2.83889349E-01  0.00000000E+00
 -4.12865062E+00  3.37877796E+00  0.00000000E+00 -2.42967902E+00
Number of symbols in /Mol/                 I                0
Force Field                                I                0
Atom Types                                 C   N=           8
                                                            
                                    
Int Atom Types                             I   N=           8
           0           0           0           0           0           0
           0           0
MM charges                                 R   N=           8
  0.00000000E+00  0.00000000E+00  0.00000000E+00  0.00000000E+00  0.00000000E+00
  0.00000000E+00  0.00000000E+00  0.00000000E+00
Integer atomic weights                     I   N=           8
          16          12          12          12           1           1
           1           1
Real atomic weights                        R   N=           8
  1.59949146E+01  1.20000000E+01  1.20000000E+01  1.20000000E+01  1.00782504E+00
  1.00782504E+00  1.00782504E+00  1.00782504E+00
Atom fragment info                         I   N=           8
           0           0           0           0           0           0
           0           0
Atom residue num                           I   N=           8
           0           0           0           0           0           0
           0           0
Nuclear spins                              I   N=           8
           0           0           0           0           1           1
           1           1
Nuclear ZEff                               R   N=           8
 -5.60000000E+00 -3.60000000E+00 -3.60000000E+00 -3.60000000E+00 -1.00000000E+00
 -1.00000000E+00 -1.00000000E+00 -1.00000000E+00
Nuclear ZNuc                               R   N=           8
  8.00000000E+00  6.00000000E+00  6.00000000E+00  6.00000000E+00  1.00000000E+00
  1.00000000E+00  1.00000000E+00  1.00000000E+00
Nuclear QMom                               R   N=           8
  0.00000000E+00  0.00000000E+00  0.00000000E+00  0.00000000E+00  0.00000000E+00
  0.00000000E+00  0.00000000E+00  0.00000000E+00
Nuclear GFac                               R   N=           8
  0.00000000E+00  0.00000000E+00  0.00000000E+00  0.00000000E+00  2.79284600E+00
  2.79284600E+00  2.79284600E+00  2.79284600E+00
MicOpt                                     I   N=           8
          -1          -1          -1          -1          -1          -1
          -1          -1
Number of residues                         I                0
Number of secondary structures             I                0
Number of contracted shells                I               64
Number of primitive shells                 I              124
Pure/Cartesian d shells                    I                0
Pure/Cartesian f shells                    I                0
Highest angular momentum                   I                3
Largest degree of contraction              I                7
Shell types                                I   N=          64
           0           0           0           0           1           1
           1          -2          -2          -3           0           0
           0           0           1           1           1          -2
          -2          -3           0           0           0           0
           1           1           1          -2          -2          -3
           0           0           0           0           1           1
           1          -2          -2          -3           0           0
           0           1           1          -2           0           0
           0           1           1          -2           0           0
           0           1           1          -2           0           0
           0           1           1          -2
Number of primitives per shell             I   N=          64
           7           6           1           1           3           1
           1           1           1           1           7           6
           1           1           3           1           1           1
           1           1           7           6           1           1
           3           1           1           1           1           1
           7           6           1           1           3           1
           1           1           1           1           3           1
           1           1           1           1           3           1
           1           1           1           1           3           1
           1           1           1           1           3           1
           1           1           1           1
Shell to atom map                          I   N=          64
           1           1           1           1           1           1
           1           1           1           1           2           2
           2           2           2           2           2           2
           2           2           3           3           3           3
           3           3           3           3           3           3
           4           4           4           4           4           4
           4           4           4           4           5           5
           5           5           5           5           6           6
           6           6           6           6           7           7
           7           7           7           7           8           8
           8           8           8           8
Primitive exponents                        R   N=         124
  1.53300000E+04  2.29900000E+03  5.22400000E+02  1.47300000E+02  4.75500000E+01
  1.67600000E+01  6.20700000E+00  5.22400000E+02  1.47300000E+02  4.75500000E+01
  1.67600000E+01  6.20700000E+00  6.88200000E-01  1.75200000E+00  2.38400000E-01
  3.44600000E+01  7.74900000E+00  2.28000000E+00  7.15600000E-01  2.14000000E-01
  2.31400000E+00  6.45000000E-01  1.42800000E+00  8.23600000E+03  1.23500000E+03
  2.80800000E+02  7.92700000E+01  2.55900000E+01  8.99700000E+00  3.31900000E+00
  2.80800000E+02  7.92700000E+01  2.55900000E+01  8.99700000E+00  3.31900000E+00
  3.64300000E-01  9.05900000E-01  1.28500000E-01  1.87100000E+01  4.13300000E+00
  1.20000000E+00  3.82700000E-01  1.20900000E-01  1.09700000E+00  3.18000000E-01
  7.61000000E-01  8.23600000E+03  1.23500000E+03  2.80800000E+02  7.92700000E+01
  2.55900000E+01  8.99700000E+00  3.31900000E+00  2.80800000E+02  7.92700000E+01
  2.55900000E+01  8.99700000E+00  3.31900000E+00  3.64300000E-01  9.05900000E-01
  1.28500000E-01  1.87100000E+01  4.13300000E+00  1.20000000E+00  3.82700000E-01
  1.20900000E-01  1.09700000E+00  3.18000000E-01  7.61000000E-01  8.23600000E+03
  1.23500000E+03  2.80800000E+02  7.92700000E+01  2.55900000E+01  8.99700000E+00
  3.31900000E+00  2.80800000E+02  7.92700000E+01  2.55900000E+01  8.99700000E+00
  3.31900000E+00  3.64300000E-01  9.05900000E-01  1.28500000E-01  1.87100000E+01
  4.13300000E+00  1.20000000E+00  3.82700000E-01  1.20900000E-01  1.09700000E+00
  3.18000000E-01  7.61000000E-01  3.38700000E+01  5.09500000E+00  1.15900000E+00
  3.25800000E-01  1.02700000E-01  1.40700000E+00  3.88000000E-01  1.05700000E+00
  3.38700000E+01  5.09500000E+00  1.15900000E+00  3.25800000E-01  1.02700000E-01
  1.40700000E+00  3.88000000E-01  1.05700000E+00  3.38700000E+01  5.09500000E+00
  1.15900000E+00  3.25800000E-01  1.02700000E-01  1.40700000E+00  3.88000000E-01
  1.05700000E+00  3.38700000E+01  5.09500000E+00  1.15900000E+00  3.25800000E-01
  1.02700000E-01  1.40700000E+00  3.88000000E-01  1.05700000E+00
Contraction coefficients                   R   N=         124
  5.19808943E-04  4.02025621E-03  2.07128267E-02  8.10105536E-02  2.35962985E-01
  4.42653446E-01  3.57064423E-01 -4.42115008E-05 -1.22591041E-03 -1.05517725E-02
 -6.74452633E-02 -1.71198607E-01  1.07329856E+00  1.00000000E+00  1.00000000E+00
  4.11634896E-02  2.57762836E-01  8.02419274E-01  1.00000000E+00  1.00000000E+00
  1.00000000E+00  1.00000000E+00  1.00000000E+00  5.41978320E-04  4.19287382E-03
  2.15221621E-02  8.35343220E-02  2.39582846E-01  4.42852842E-01  3.51799562E-01
 -5.94922494E-05 -1.14815831E-03 -1.00191374E-02 -6.12194923E-02 -1.73269854E-01
  1.07291519E+00  1.00000000E+00  1.00000000E+00  3.94263872E-02  2.44088985E-01
  8.15492009E-01  1.00000000E+00  1.00000000E+00  1.00000000E+00  1.00000000E+00
  1.00000000E+00  5.41978320E-04  4.19287382E-03  2.15221621E-02  8.35343220E-02
  2.39582846E-01  4.42852842E-01  3.51799562E-01 -5.94922494E-05 -1.14815831E-03
 -1.00191374E-02 -6.12194923E-02 -1.73269854E-01  1.07291519E+00  1.00000000E+00
  1.00000000E+00  3.94263872E-02  2.44088985E-01  8.15492009E-01  1.00000000E+00
  1.00000000E+00  1.00000000E+00  1.00000000E+00  1.00000000E+00  5.41978320E-04
  4.19287382E-03  2.15221621E-02  8.35343220E-02  2.39582846E-01  4.42852842E-01
  3.51799562E-01 -5.94922494E-05 -1.14815831E-03 -1.00191374E-02 -6.12194923E-02
 -1.73269854E-01  1.07291519E+00  1.00000000E+00  1.00000000E+00  3.94263872E-02
  2.44088985E-01  8.15492009E-01  1.00000000E+00  1.00000000E+00  1.00000000E+00
  1.00000000E+00  1.00000000E+00  2.54948632E-02  1.90362766E-01  8.52162022E-01
  1.00000000E+00  1.00000000E+00  1.00000000E+00  1.00000000E+00  1.00000000E+00
  2.54948632E-02  1.90362766E-01  8.52162022E-01  1.00000000E+00  1.00000000E+00
  1.00000000E+00  1.00000000E+00  1.00000000E+00  2.54948632E-02  1.90362766E-01
  8.52162022E-01  1.00000000E+00  1.00000000E+00  1.00000000E+00  1.00000000E+00
  1.00000000E+00  2.54948632E-02  1.90362766E-01  8.52162022E-01  1.00000000E+00
  1.00000000E+00  1.00000000E+00  1.00000000E+00  1.00000000E+00
Coordinates of each shell                  R   N=         192
 -2.43714114E+00  0.00000000E+00  5.68631363E-02 -2.43714114E+00  0.00000000E+00
  5.68631363E-02 -2.43714114E+00  0.00000000E+00  5.68631363E-02 -2.43714114E+00
  0.00000000E+00  5.68631363E-02 -2.43714114E+00  0.00000000E+00  5.68631363E-02
 -2.43714114E+00  0.00000000E+00  5.68631363E-02 -2.43714114E+00  0.00000000E+00
  5.68631363E-02 -2.43714114E+00  0.00000000E+00  5.68631363E-02 -2.43714114E+00
  0.00000000E+00  5.68631363E-02 -2.43714114E+00  0.00000000E+00  5.68631363E-02
 -1.10037849E-01  0.00000000E+00  2.96765130E-03 -1.10037849E-01  0.00000000E+00
  2.96765130E-03 -1.10037849E-01  0.00000000E+00  2.96765130E-03 -1.10037849E-01
  0.00000000E+00  2.96765130E-03 -1.10037849E-01  0.00000000E+00  2.96765130E-03
 -1.10037849E-01  0.00000000E+00  2.96765130E-03 -1.10037849E-01  0.00000000E+00
  2.96765130E-03 -1.10037849E-01  0.00000000E+00  2.96765130E-03 -1.10037849E-01
  0.00000000E+00  2.96765130E-03 -1.10037849E-01  0.00000000E+00  2.96765130E-03
  1.41266084E+00  0.00000000E+00  2.31487883E+00  1.41266084E+00  0.00000000E+00
  2.31487883E+00  1.41266084E+00  0.00000000E+00  2.31487883E+00  1.41266084E+00
  0.00000000E+00  2.31487883E+00  1.41266084E+00  0.00000000E+00  2.31487883E+00
  1.41266084E+00  0.00000000E+00  2.31487883E+00  1.41266084E+00  0.00000000E+00
  2.31487883E+00  1.41266084E+00  0.00000000E+00  2.31487883E+00  1.41266084E+00
  0.00000000E+00  2.31487883E+00  1.41266084E+00  0.00000000E+00  2.31487883E+00
  1.30847411E+00  0.00000000E+00 -2.37744417E+00  1.30847411E+00  0.00000000E+00
 -2.37744417E+00  1.30847411E+00  0.00000000E+00 -2.37744417E+00  1.30847411E+00
  0.00000000E+00 -2.37744417E+00  1.30847411E+00  0.00000000E+00 -2.37744417E+00
  1.30847411E+00  0.00000000E+00 -2.37744417E+00  1.30847411E+00  0.00000000E+00
 -2.37744417E+00  1.30847411E+00  0.00000000E+00 -2.37744417E+00  1.30847411E+00
  0.00000000E+00 -2.37744417E+00  1.30847411E+00  0.00000000E+00 -2.37744417E+00
  4.67860552E-01  0.00000000E+00  4.10905468E+00  4.67860552E-01  0.00000000E+00
  4.10905468E+00  4.67860552E-01  0.00000000E+00  4.10905468E+00  4.67860552E-01
  0.00000000E+00  4.10905468E+00  4.67860552E-01  0.00000000E+00  4.10905468E+00
  4.67860552E-01  0.00000000E+00  4.10905468E+00  3.44026862E+00  0.00000000E+00
  2.25685462E+00  3.44026862E+00  0.00000000E+00  2.25685462E+00  3.44026862E+00
  0.00000000E+00  2.25685462E+00  3.44026862E+00  0.00000000E+00  2.25685462E+00
  3.44026862E+00  0.00000000E+00  2.25685462E+00  3.44026862E+00  0.00000000E+00
  2.25685462E+00  2.83889349E-01  0.00000000E+00 -4.12865062E+00  2.83889349E-01
  0.00000000E+00 -4.12865062E+00  2.83889349E-01  0.00000000E+00 -4.12865062E+00
  2.83889349E-01  0.00000000E+00 -4.12865062E+00  2.83889349E-01  0.00000000E+00
 -4.12865062E+00  2.83889349E-01  0.00000000E+00 -4.12865062E+00  3.37877796E+00
  0.00000000E+00 -2.42967902E+00  3.37877796E+00  0.00000000E+00 -2.42967902E+00
  3.37877796E+00  0.00000000E+00 -2.42967902E+00  3.37877796E+00  0.00000000E+00
 -2.42967902E+00  3.37877796E+00  0.00000000E+00 -2.42967902E+00  3.37877796E+00
  0.00000000E+00 -2.42967902E+00
Constraint Structure                       R   N=          24
 -2.43714114E+00  0.00000000E+00  5.68631363E-02 -1.10037849E-01  0.00000000E+00
  2.96765130E-03  1.41266084E+00  0.00000000E+00  2.31487883E+00  1.30847411E+00
  0.00000000E+00 -2.37744417E+00  4.67860552E-01  0.00000000E+00  4.10905468E+00
  3.44026862E+00  0.00000000E+00  2.25685462E+00  2.83889349E-01  0.00000000E+00
 -4.12865062E+00  3.37877796E+00  0.00000000E+00 -2.42967902E+00
Num ILSW                                   I              100
ILSW                                       I   N=         100
           1           0           0           0           2           0
           0           0           3           0        4336 13421772800
           5           1           0           0           0           0
           0           0           1           0           0           0
           1           1           0           0           0           0
           0           0      100000           0          -1           0
           0           0           0           0           0           0
           0           0           0           1           0           0
           0           0           1           0           0           0
           0           0           4          41           0           0
           0           0          55           0           0           0
           0           0           0           0           0           0
           0           0           0           0           0           0
           0           0           0           0           0           0
           0           0           0           0           0           0
           0           0           0           0           0           0
           0           0           0           0
Num RLSW                                   I               41
RLSW                                       R   N=          41
  1.00000000E+00  1.00000000E+00  1.00000000E+00  1.00000000E+00  5.40000000E-01
  0.00000000E+00  0.00000000E+00  1.00000000E+00  0.00000000E+00  0.00000000E+00
  0.00000000E+00  0.00000000E+00  1.00000000E+00  0.00000000E+00  0.00000000E+00
  0.00000000E+00  0.00000000E+00  1.00000000E+00  0.00000000E+00  0.00000000E+00
  0.00000000E+00  0.00000000E+00  1.00000000E+00  0.00000000E+00  0.00000000E+00
  0.00000000E+00  0.00000000E+00  1.00000000E+00  0.00000000E+00  0.00000000E+00
  0.00000000E+00  0.00000000E+00  1.00000000E+00  0.00000000E+00  0.00000000E+00
  0.00000000E+00  0.00000000E+00  0.00000000E+00  1.00000000E+00  1.00000000E+00
  0.00000000E+00
MxBond                                     I                3
NBond                                      I   N=           8
           1           3           3           3           1           1
           1           1
IBond                                      I   N=          24
           2           0           0           1           3           4
           2           5           6           2           7           8
           3           0           0           3           0           0
           4           0           0           4           0           0
RBond                                      R   N=          24
  2.00000000E+00  0.00000000E+00  0.00000000E+00  2.00000000E+00  1.00000000E+00
  1.00000000E+00  1.00000000E+00  1.00000000E+00  1.00000000E+00  1.00000000E+00
  1.00000000E+00  1.00000000E+00  1.00000000E+00  0.00000000E+00  0.00000000E+00
  1.00000000E+00  0.00000000E+00  0.00000000E+00  1.00000000E+00  0.00000000E+00
  0.00000000E+00  1.00000000E+00  0.00000000E+00  0.00000000E+00
Virial Ratio                               R      2.005866961933505E+00
SCF Energy                                 R     -1.918142074184173E+02
Total Energy                               R     -1.918142074184173E+02
S**2                                       R      8.648325122797722E-01
S**2 after annihilation                    R      4.370004633352861E-02
RMS Density                                R      8.402632190616032E-09
External E-field                           R   N=          35
  0.00000000E+00  0.00000000E+00  0.00000000E+00  0.00000000E+00  0.00000000E+00
  0.00000000E+00  0.00000000E+00  0.00000000E+00  0.00000000E+00  0.00000000E+00
  0.00000000E+00  0.00000000E+00  0.00000000E+00  0.00000000E+00  0.00000000E+00
  0.00000000E+00  0.00000000E+00  0.00000000E+00  0.00000000E+00  0.00000000E+00
  0.00000000E+00  0.00000000E+00  0.00000000E+00  0.00000000E+00  0.00000000E+00
  0.00000000E+00  0.00000000E+00  0.00000000E+00  0.00000000E+00  0.00000000E+00
  0.00000000E+00  0.00000000E+00  0.00000000E+00  0.00000000E+00  0.00000000E+00
IOpCl                                      I                1
IROHF                                      I                0
Alpha Orbital Energies                     R   N=         176
 -1.95941413E+01 -1.06306794E+01 -1.05872871E+01 -1.05840368E+01 -1.14426618E+00
 -8.71312273E-01 -7.84057413E-01 -6.28063898E-01 -5.58781067E-01 -5.49766634E-01
 -4.80701897E-01 -4.78328080E-01 -4.71042708E-01 -3.28588944E-01 -3.07804324E-01
 -8.06102227E-02  7.09945512E-02  1.00713045E-01  1.14705569E-01  1.18064084E-01
  1.49201938E-01  1.83987006E-01  2.35263571E-01  2.86414428E-01  3.13438118E-01
  3.16928842E-01  3.55599711E-01  3.61842475E-01  3.73590022E-01  4.12796460E-01
  4.15412535E-01  4.46439689E-01  4.88230842E-01  4.92698635E-01  5.04341259E-01
  5.07013602E-01  5.37834287E-01  5.58020387E-01  5.86557028E-01  5.97957180E-01
  6.41628972E-01  7.11904580E-01  7.28514365E-01  7.57044533E-01  7.57142468E-01
  8.24541873E-01  8.48302128E-01  8.78795789E-01  9.08788388E-01  9.22663897E-01
  9.52072110E-01  9.75480789E-01  9.96189947E-01  1.03668948E+00  1.05843860E+00
  1.11660040E+00  1.13719826E+00  1.19758625E+00  1.23016529E+00  1.26415257E+00
  1.29857306E+00  1.30730099E+00  1.32866707E+00  1.34947282E+00  1.36361577E+00
  1.42571748E+00  1.44612378E+00  1.53256082E+00  1.64767070E+00  1.66965336E+00
  1.73095754E+00  1.80098894E+00  1.96315054E+00  1.98117593E+00  2.09486323E+00
  2.11545747E+00  2.13364633E+00  2.16236761E+00  2.21738548E+00  2.22639750E+00
  2.25200321E+00  2.34213776E+00  2.36595696E+00  2.41728016E+00  2.46055695E+00
  2.53314279E+00  2.54183981E+00  2.60001278E+00  2.60899238E+00  2.70199347E+00
  2.71839769E+00  2.73688889E+00  2.78080301E+00  2.78790079E+00  2.79259964E+00
  2.83773005E+00  2.85143397E+00  2.87420492E+00  2.93816155E+00  2.94548134E+00
  2.96174470E+00  3.02188498E+00  3.03460684E+00  3.07583575E+00  3.08349776E+00
  3.08408800E+00  3.11703378E+00  3.17228069E+00  3.19864034E+00  3.20505090E+00
  3.22076502E+00  3.25886833E+00  3.34938451E+00  3.37947446E+00  3.39550743E+00
  3.40932110E+00  3.46516766E+00  3.47844153E+00  3.55021582E+00  3.60023186E+00
  3.61904577E+00  3.65736690E+00  3.68025243E+00  3.70613231E+00  3.73970340E+00
  3.85949114E+00  3.86933492E+00  3.88024860E+00  3.89934966E+00  3.91337776E+00
  3.91928603E+00  3.96532592E+00  4.00939927E+00  4.02433866E+00  4.06237187E+00
  4.08228340E+00  4.12321744E+00  4.17698271E+00  4.19305616E+00  4.31366403E+00
  4.45012410E+00  4.50195850E+00  4.58276279E+00  4.71912707E+00  4.75614138E+00
  4.78021583E+00  4.80881275E+00  4.82573743E+00  4.84219279E+00  4.92995828E+00
  4.95313638E+00  4.95474052E+00  5.12882976E+00  5.20797675E+00  5.21694489E+00
  5.25419351E+00  5.25503022E+00  5.39451486E+00  5.44794380E+00  5.62748912E+00
  5.66030334E+00  5.67254547E+00  5.86126819E+00  5.91406874E+00  6.14509960E+00
  6.32721374E+00  6.39911877E+00  6.48843877E+00  6.84798235E+00  6.85128790E+00
  7.03046932E+00  7.10257970E+00  9.46145257E+00  1.18391929E+01  1.23120628E+01
  1.31879433E+01
Beta Orbital Energies                      R   N=         176
 -1.95941201E+01 -1.06306824E+01 -1.05895565E+01 -1.05818110E+01 -1.14420998E+00
 -8.70490166E-01 -7.84852741E-01 -6.28042124E-01 -5.56512009E-01 -5.51831261E-01
 -4.80322016E-01 -4.79010516E-01 -4.70905385E-01 -3.28545783E-01 -3.07684550E-01
 -8.07806160E-02  7.05414116E-02  1.00683891E-01  1.14323885E-01  1.18123415E-01
  1.48792367E-01  1.83775490E-01  2.35261669E-01  2.86372163E-01  3.13214442E-01
  3.16404499E-01  3.55312908E-01  3.60661562E-01  3.73653470E-01  4.12638408E-01
  4.14333881E-01  4.47738469E-01  4.89447446E-01  4.92399014E-01  5.04019847E-01
  5.06576265E-01  5.37724566E-01  5.58011237E-01  5.86741080E-01  5.98042262E-01
  6.41513109E-01  7.11898298E-01  7.28652704E-01  7.56866079E-01  7.57199398E-01
  8.24797819E-01  8.48356228E-01  8.78893788E-01  9.08988649E-01  9.22354116E-01
  9.51931774E-01  9.76547794E-01  9.94934488E-01  1.03640312E+00  1.05810558E+00
  1.11651321E+00  1.13715752E+00  1.19759325E+00  1.23017511E+00  1.26323419E+00
  1.30053253E+00  1.30500750E+00  1.32740976E+00  1.35115841E+00  1.36371240E+00
  1.42550712E+00  1.44361592E+00  1.53449547E+00  1.64622831E+00  1.67158796E+00
  1.73090236E+00  1.80159687E+00  1.96276188E+00  1.98114296E+00  2.09558535E+00
  2.11568757E+00  2.13183678E+00  2.16342919E+00  2.21797749E+00  2.22625810E+00
  2.25229405E+00  2.34185599E+00  2.36613648E+00  2.41725428E+00  2.46069592E+00
  2.53242251E+00  2.54147469E+00  2.60039311E+00  2.60960126E+00  2.70186661E+00
  2.71833820E+00  2.73700597E+00  2.78122083E+00  2.78788271E+00  2.79105179E+00
  2.83357453E+00  2.85032754E+00  2.88044840E+00  2.93987051E+00  2.94430359E+00
  2.96067755E+00  3.01912766E+00  3.03343074E+00  3.07630809E+00  3.08679667E+00
  3.08704870E+00  3.11400265E+00  3.17144638E+00  3.19838775E+00  3.20441129E+00
  3.22106627E+00  3.25836577E+00  3.34494358E+00  3.37914217E+00  3.39695121E+00
  3.40744088E+00  3.46720545E+00  3.48222071E+00  3.55003402E+00  3.59999280E+00
  3.61814790E+00  3.65388383E+00  3.68400681E+00  3.70491658E+00  3.74112870E+00
  3.85930195E+00  3.86922545E+00  3.87630759E+00  3.90102450E+00  3.91584057E+00
  3.91833641E+00  3.96294262E+00  4.00929780E+00  4.02456649E+00  4.06506222E+00
  4.08198517E+00  4.12157568E+00  4.17629763E+00  4.19508210E+00  4.31387489E+00
  4.44830709E+00  4.50139403E+00  4.58237576E+00  4.69175626E+00  4.76871693E+00
  4.78550752E+00  4.79641853E+00  4.82907334E+00  4.85114242E+00  4.91705574E+00
  4.96770574E+00  4.96985753E+00  5.12663732E+00  5.19645488E+00  5.21778921E+00
  5.25441336E+00  5.26789951E+00  5.39695301E+00  5.44696189E+00  5.62778026E+00
  5.65844309E+00  5.67572428E+00  5.84569189E+00  5.93051632E+00  6.14517834E+00
  6.32756251E+00  6.39929205E+00  6.48851558E+00  6.84848890E+00  6.85140064E+00
  7.03053519E+00  7.10261520E+00  9.46172008E+00  1.18349861E+01  1.23136064E+01
  1.31886629E+01
Alpha MO coefficients                      R   N=       30976
  9.75752073E-01 -8.41326925E-03  4.60147623E-02  3.53263608E-03  1.57474358E-03
  3.92110705E-16 -3.88302768E-05 -3.96609868E-04 -4.40121162E-17  1.04272593E-05
  3.86100297E-04  5.12559108E-16 -4.23362448E-06 -1.64499708E-04 -1.49487233E-05
 -2.41565451E-17  2.12707966E-04  2.14910029E-16  1.70872721E-04  1.70453621E-05
  1.85935705E-17 -3.40517321E-04 -7.74297029E-17  3.03216990E-07 -5.18686642E-06
 -5.38190164E-18  2.96755838E-06 -3.84238092E-16 -7.63143305E-05  1.01669356E-16
 -5.28999822E-05  2.25193375E-04  3.84312559E-04 -8.31729486E-04 -3.94121494E-04
  6.82917141E-17  8.48782350E-06 -2.66570543E-04 -1.90770786E-16  1.89397752E-05
  6.89972923E-04 -4.57641772E-16 -3.16490160E-05 -2.16433455E-04 -1.35846870E-05
  1.52044168E-16  2.05939221E-04  8.03459430E-17  1.49682113E-03  9.26545091E-05
 -6.72696934E-16 -1.08654674E-03  6.83264450E-17  2.53498151E-05 -3.81976043E-04
  9.19512807E-17 -2.45101483E-05 -3.09771030E-16  3.56004630E-04 -2.15100835E-16
  2.26856255E-05  2.25353336E-04  8.15359062E-06 -8.67783610E-05 -6.83363224E-05
 -2.55574133E-17 -4.39657531E-05  4.52944115E-04 -4.19050257E-17  2.70321054E-04
  3.49196989E-05  2.58241814E-16  1.09007971E-04 -1.57463972E-05  4.98831526E-05
 -2.20380189E-16  9.24947064E-05  2.77215829E-17  8.27109967E-04 -5.42749595E-04
 -3.26699431E-16 -4.78828266E-04 -4.04804366E-16 -2.13902395E-05 -1.42437445E-04
  1.11199297E-16  7.20137347E-05  2.91023190E-16  7.87803939E-05 -2.91850825E-16
  2.14052580E-05  2.13109987E-04  6.07833727E-06 -1.32907100E-04 -6.67342809E-05
  1.10252210E-16  4.58657843E-05  3.99822332E-04 -7.27133082E-16 -2.79565317E-04
  2.51162056E-05  1.21848753E-16 -1.17141560E-04 -9.55768833E-06 -5.50886214E-05
  2.79014366E-16  8.64023805E-05  5.01504379E-17  7.89018145E-04  6.10908154E-04
  2.27030003E-16 -4.70443311E-04  3.36388548E-16  3.30887833E-05 -1.32272492E-04
 -2.54376714E-16 -8.28634734E-05 -2.58885574E-16  7.16940827E-05 -3.10443165E-16
 -8.69466454E-05 -7.58977872E-04  4.40083853E-05 -2.44454886E-05  8.25917893E-17
  3.65374135E-05 -3.42903035E-04  1.36007309E-16  9.83955293E-05  3.43735286E-05
  6.61163357E-05 -4.20344012E-16  7.54685569E-06  1.30324302E-16 -7.06811112E-06
  2.15508460E-04 -5.59741914E-05  7.05516768E-05  2.66100369E-16 -2.45338456E-05
  4.69803056E-05  1.74785909E-16  1.87440703E-04  2.14500483E-05  2.71558764E-06
  1.56073356E-17 -6.66696580E-05 -2.38699670E-16 -8.60962458E-05 -7.50574773E-04
  4.32628384E-05 -2.67210628E-05  2.03948842E-16 -3.48487268E-05 -3.49240617E-04
  6.16018379E-16 -8.02279519E-05  4.04206201E-05 -6.45781632E-05  6.52879654E-16
  3.70513659E-06  2.77598787E-16 -1.84028204E-07  2.70614126E-04 -4.83376391E-05
  6.45593095E-05  1.64299026E-16  1.69244728E-05  6.34828274E-06 -5.03926465E-17
 -1.75729553E-04  1.93027299E-05  7.04666442E-06  7.48101097E-17 -6.47253632E-05
 -1.83942001E-16 -4.66972894E-04 -9.25793669E-04  8.05816362E-04 -5.26440515E-03
  7.88455520E-04  1.31981577E-16 -2.03803127E-05 -3.13038461E-03  5.23031548E-16
  7.34086812E-05 -2.00889621E-03 -1.67338107E-15  3.70597582E-05 -3.88816951E-05
 -2.46631932E-06  1.64012728E-16  1.68329037E-05  3.93233702E-16  1.25922531E-03
  9.46181401E-05 -5.12372534E-16 -2.04421782E-03  5.67579232E-16 -2.80370038E-05
  4.74634141E-04 -1.53655805E-16  3.22926578E-05  2.10097516E-16 -5.31249988E-04
  4.49126930E-16  9.77481966E-01 -2.51682500E-04  4.59224117E-02  5.25240248E-03
  5.49567031E-05  9.91434426E-16  1.68513612E-05 -2.44262337E-03 -2.70932030E-15
  4.01886170E-04 -7.40714098E-04  7.34358828E-15  2.01409190E-04 -4.90638587E-05
  3.60133099E-05 -2.85574999E-16  1.65485887E-03  8.63636428E-17  2.27698303E-04
  1.15441812E-04  7.40999912E-16  4.93725078E-04  6.17714255E-16 -5.34771082E-05
  1.32198092E-03  2.81092678E-16  1.06205703E-04  9.66313534E-18 -9.01380290E-04
 -2.99338390E-16  5.93458088E-03 -3.67437616E-05  1.05866563E-03  4.36106651E-04
 -3.90757882E-04  1.34043588E-16 -5.31563188E-04  1.98458126E-03 -5.74453470E-16
  1.88462915E-03  7.80412082E-04 -3.63336590E-15  8.99727959E-04 -1.99905922E-04
 -9.82817635E-05 -2.72115576E-16 -1.75085708E-04 -2.55867166E-16 -1.02859426E-03
 -3.03422833E-03  1.41170430E-16  4.04126861E-04  1.28218329E-15 -3.81585880E-05
  1.14254869E-03 -1.17266725E-16  5.66142705E-04  1.96819498E-16  5.84467230E-05
 -2.70920537E-17  5.12996211E-03  8.65071078E-05  9.48779539E-04  6.60393054E-04
 -3.45689931E-04 -3.42450554E-16  5.25098184E-04  1.57176047E-03  9.63240480E-16
 -1.62230502E-03  5.54910478E-04 -3.46358758E-15 -7.56055063E-04 -1.46825505E-04