
 Nodes     nprocs
 knld-0053    4
 Number of processes for MPI-2 version of Molpro:   nprocs(total)=    5   nprocs(compute)=    4   nprocs(helper)=    1

 Using customized tuning parameters: mindgm=7; mindgv=16; mindgc=1; mindgr=1; noblas=0; minvec=7
 default implementation of scratch files=df  

 ***,title
 memory,1000,m
 
 nosym
 geometry
            8
  ANT Direct Dynamics Calculation
 O          -1.2711073655        0.0199236720        0.0250326658
 C          -0.1088313989       -0.0493519827        0.0098090244
 C           0.7683165117       -0.2100778949        1.1862431937
 C           0.7136306855       -0.0179312871       -1.2152031841
 H           0.2492630527       -0.0358581367        2.1639162325
 H           1.8151824090       -0.0183371210        1.1894014916
 H           0.1477557160        0.0089950159       -2.1830711309
 H           1.7841357201        0.0026377371       -1.2793997850
 end
 
 nn(1)=1
 nn(2)=2
 nn(3)=3
 nn(4)=4
 nn(5)=5
 nn(6)=6
 nn(7)=7
 nn(8)=8
 
 basis=vtz-f12
                                                                                 !basis=vqz-f12
 {rhf;wf,30,1,2}
 {rmp2-f12;wf,30,1,2}
 molpro_energy=energy(1)
 force
 varsav
 text,MOLGRAD
 table,nn,gradx,grady,gradz
 ftyp,f,d,d,d
 

 Variables initialized (889), CPU time= 0.03 sec
 Commands  initialized (702), CPU time= 0.05 sec, 572 directives.
 Default parameters read. Elapsed time= 0.40 sec

 Checking input...
 Passed
1


                                         ***  PROGRAM SYSTEM MOLPRO  ***
                                       Copyright, TTI GmbH Stuttgart, 2015
                                    Version 2015.1 linked Sep 21 2017 09:51:13


 **********************************************************************************************************************************
 LABEL *   title                                                                         
  64 bit mppx version                                                                    DATE: 23-May-18          TIME: 14:10:50  
 **********************************************************************************************************************************

 SHA1:             f86d681fdec979508940bfbbc93fd7db66630888
 **********************************************************************************************************************************

 Variable memory set to 1000000000 words,  buffer space   230000 words

 ZSYMEL=NOSYM
 

Geometry recognized as XYZ

 SETTING NN(1)          =         1.00000000                                  
 SETTING NN(2)          =         2.00000000                                  
 SETTING NN(3)          =         3.00000000                                  
 SETTING NN(4)          =         4.00000000                                  
 SETTING NN(5)          =         5.00000000                                  
 SETTING NN(6)          =         6.00000000                                  
 SETTING NN(7)          =         7.00000000                                  
 SETTING NN(8)          =         8.00000000                                  
 SETTING BASIS          =    VTZ-F12


 Recomputing integrals since basis changed


 Using spherical harmonics

 Library entry O      S cc-pVTZ-F12          selected for orbital group  1
 Library entry O      P cc-pVTZ-F12          selected for orbital group  1
 Library entry O      D cc-pVTZ-F12          selected for orbital group  1
 Library entry O      F cc-pVTZ-F12          selected for orbital group  1
 Library entry C      S cc-pVTZ-F12          selected for orbital group  2
 Library entry C      P cc-pVTZ-F12          selected for orbital group  2
 Library entry C      D cc-pVTZ-F12          selected for orbital group  2
 Library entry C      F cc-pVTZ-F12          selected for orbital group  2
 Library entry H      S cc-pVTZ-F12          selected for orbital group  3
 Library entry H      P cc-pVTZ-F12          selected for orbital group  3
 Library entry H      D cc-pVTZ-F12          selected for orbital group  3


 PROGRAM * SEWARD (Integral evaluation for generally contracted gaussian basis sets)     Author: Roland Lindh, 1990

 Geometry written to block  1 of record 700


 Point group  C1  



 ATOMIC COORDINATES

 NR  ATOM    CHARGE       X              Y              Z

   1  O       8.00   -2.402044796    0.037650283    0.047304883
   2  C       6.00   -0.205661538   -0.093261731    0.018536370
   3  C       6.00    1.451907784   -0.396989686    2.241674753
   4  C       6.00    1.348566550   -0.033885222   -2.296401204
   5  H       1.00    0.471038903   -0.067762058    4.089209036
   6  H       1.00    3.430197619   -0.034652137    2.247643071
   7  H       1.00    0.279217837    0.016998117   -4.125406548
   8  H       1.00    3.371527880    0.004984601   -2.417715197

 Bond lengths in Bohr (Angstrom)

 1-2  2.200469268  2-3  2.789647110  2-4  2.788922101  3-5  2.117516829  3-6  2.011207297
     ( 1.164438190)     ( 1.476217677)     ( 1.475834019)     ( 1.120541649)     ( 1.064285068)

 4-7  2.119282033  4-8  2.026968301
     ( 1.121475755)     ( 1.072625432)

 Bond angles

  1-2-3  126.09609134   1-2-4  124.46041765   2-3-5  113.77538894   2-3-6  124.55594764

  2-4-7  115.82803896   2-4-8  127.32037373   3-2-4  109.43100297   5-3-6  115.15288514

  7-4-8  116.83806291

 NUCLEAR CHARGE:                   30
 NUMBER OF PRIMITIVE AOS:         372
 NUMBER OF SYMMETRY AOS:          332
 NUMBER OF CONTRACTIONS:          284   ( 284A   )
 NUMBER OF CORE ORBITALS:           4   (   4A   )
 NUMBER OF VALENCE ORBITALS:       20   (  20A   )


 NUCLEAR REPULSION ENERGY  105.66131740


 Eigenvalues of metric

         1 0.758E-04 0.897E-04 0.962E-04 0.127E-03 0.166E-03 0.184E-03 0.201E-03 0.225E-03


 Contracted 2-electron integrals neglected if value below      1.0D-11
 AO integral compression algorithm  1   Integral accuracy      1.0D-11

     3401.581 MB (compressed) written to integral file ( 46.0%)


 NUMBER OF SORTED TWO-ELECTRON INTEGRALS:  818930685.     BUFFER LENGTH:  32768
 NUMBER OF SEGMENTS:  52  SEGMENT LENGTH:   15999984      RECORD LENGTH: 262144

 Memory used in sort:      16.29 MW

 SORT1 READ   925190747. AND WROTE   776392479. INTEGRALS IN   4469 RECORDS. CPU TIME:    51.24 SEC, REAL TIME:   127.53 SEC
 SORT2 READ   776392479. AND WROTE   818930685. INTEGRALS IN  12976 RECORDS. CPU TIME:    44.73 SEC, REAL TIME:    64.70 SEC

 FILE SIZES:   FILE 1:  3423.8 MBYTE,  FILE 4:  9372.2 MBYTE,   TOTAL:  12796.0 MBYTE

 OPERATOR DM      FOR CENTER  0  COORDINATES:    0.000000    0.000000    0.000000


 **********************************************************************************************************************************
 DATASETS  * FILE   NREC   LENGTH (MB)   RECORD NAMES
              1      19     3066.37       500      610      700      900      950      970     1000      129      960     1100   
                                          VAR    BASINP    GEOM    SYMINP    ZMAT    AOBASIS   BASIS     P2S    ABASIS      S 
                                         1400     1410     1200     1210     1080     1600     1650     1300     1700   
                                           T        V       H0       H01     AOSYM     SMH    MOLCAS    ERIS     OPER   

 PROGRAMS   *        TOTAL       INT
 CPU TIMES  *       242.12    241.38
 REAL TIME  *       351.52 SEC
 DISK USED  *        12.80 GB      
 **********************************************************************************************************************************


 PROGRAM * RHF-SCF (OPEN SHELL)       Authors: W. Meyer, H.-J. Werner


 NUMBER OF ELECTRONS:      16+   14-    SPACE SYMMETRY=1    SPIN SYMMETRY: Triplet 
 CONVERGENCE THRESHOLDS:    1.00E-06 (Density)    1.00E-07 (Energy)
 MAX. NUMBER OF ITERATIONS:       60
 INTERPOLATION TYPE:            DIIS
 INTERPOLATION STEPS:              2 (START)      1 (STEP)
 LEVEL SHIFTS:                 -0.60 (CLOSED) -0.30 (OPEN) 



 Orbital guess generated from atomic densities. Full valence occupancy:   24

 Molecular orbital dump at record        2100.2

 Initial alpha occupancy:  16
 Initial beta  occupancy:  14
 Wave function symmetry:    1

 ITERATION    DDIFF          GRAD             ENERGY        2-EL.EN.            DIPOLE MOMENTS         DIIS   ORB.
    1      0.000D+00      0.000D+00      -190.70677700    343.774185    1.86059    0.00164   -0.05089    0    start
    2      0.000D+00      0.350D-02      -190.75654922    342.851178    1.23530    0.05182   -0.04265    1    diag,B
    3      0.263D-02      0.140D-02      -190.76528060    343.201843    1.29034    0.04559   -0.04165    2    diag,B
    4      0.860D-03      0.555D-03      -190.77020931    343.182746    1.24161    0.04959   -0.03858    3    diag,B
    5      0.632D-03      0.225D-03      -190.77186180    343.193732    1.24180    0.05025   -0.03687    4    diag,B
    6      0.320D-03      0.124D-03      -190.77267218    343.198694    1.24946    0.05023   -0.03545    5    diag,B
    7      0.251D-03      0.703D-04      -190.77296394    343.205525    1.25359    0.04964   -0.03439    6    fixocc
    8      0.171D-03      0.393D-04      -190.77303813    343.208100    1.25528    0.04907   -0.03390    7    diag,B
    9      0.820D-04      0.247D-04      -190.77307544    343.209381    1.25709    0.04863   -0.03364    8    diag,B
   10      0.786D-04      0.127D-04      -190.77308535    343.209040    1.25793    0.04855   -0.03359    9    orth
   11      0.452D-04      0.538D-05      -190.77308661    343.208765    1.25761    0.04862   -0.03357    9    diag,B
   12      0.196D-04      0.254D-05      -190.77308680    343.208896    1.25727    0.04867   -0.03357    9    diag,B
   13      0.901D-05      0.974D-06      -190.77308683    343.208770    1.25704    0.04868   -0.03355    9    diag,B
   14      0.312D-05      0.450D-06      -190.77308683    343.208781    1.25694    0.04868   -0.03354    9    diag,B
   15      0.178D-05      0.151D-06      -190.77308683    343.208772    1.25690    0.04868   -0.03354    9    diag,B
   16      0.100D-05      0.516D-07      -190.77308683    343.208768    1.25689    0.04868   -0.03354    9    diag,B
   17      0.326D-06      0.219D-07      -190.77308683    343.208769    1.25689    0.04868   -0.03354    0    orth

 Final alpha occupancy:  16
 Final beta  occupancy:  14

 !RHF STATE 1.1 Energy               -190.773086830269
 Nuclear energy                       105.66131740
 One-electron energy                 -468.03878859
 Two-electron energy                  171.60438436
 Virial quotient                       -1.00002147
 !RHF STATE 1.1 Dipole moment           1.25689255     0.04867959    -0.03353886
 Dipole moment /Debye                   3.19449297     0.12372308    -0.08524170

 Orbital energies:

         1.1          2.1          3.1          4.1          5.1          6.1          7.1          8.1          9.1         10.1
    -20.555676   -11.333859   -11.254953   -11.254826    -1.428749    -1.031739    -0.923487    -0.748128    -0.674777    -0.656299

        11.1         12.1         13.1         14.1         15.1         16.1         17.1         18.1
     -0.600303    -0.567795    -0.542454    -0.432952    -0.434501    -0.383523     0.041348     0.051546

 HOMO     16.1    -0.383523 =     -10.4362eV
 LUMO     17.1     0.041348 =       1.1251eV
 LUMO-HOMO         0.424871 =      11.5613eV


 **********************************************************************************************************************************
 DATASETS  * FILE   NREC   LENGTH (MB)   RECORD NAMES
              1      19     3066.37       500      610      700      900      950      970     1000      129      960     1100   
                                          VAR    BASINP    GEOM    SYMINP    ZMAT    AOBASIS   BASIS     P2S    ABASIS      S 
                                         1400     1410     1200     1210     1080     1600     1650     1300     1700   
                                           T        V       H0       H01     AOSYM     SMH    MOLCAS    ERIS     OPER   

              2       4        5.18       700     1000      520     2100   
                                         GEOM     BASIS   MCVARS     RHF  

 PROGRAMS   *        TOTAL       RHF       INT
 CPU TIMES  *       813.70    571.57    241.38
 REAL TIME  *       939.23 SEC
 DISK USED  *        12.80 GB      
 **********************************************************************************************************************************


 PROGRAM * RMP2 (Restricted open-shell)     Authors: H.-J. Werner, 2001

                            RMP2-F12 implementation by G. Knizia and H.-J. Werner, 2008

                   Density fitting integral evaluation by F.R. Manby, 2003,2007, G. Knizia, 2010

 Basis set CC-PVTZ/JKFIT generated.      Number of basis functions:   436 
 Basis set CC-PVTZ-F12/OPTRI generated.  Number of basis functions:   464 
 Basis set AUG-CC-PVTZ/MP2FIT generated. Number of basis functions:   608 

 Convergence thresholds:  THRVAR = 1.00D-12  THRDEN = 1.00D-08

 Number of core orbitals:           4 (   4 )
 Number of closed-shell orbitals:  10 (  10 )
 Number of active  orbitals:        2 (   2 )
 Number of external orbitals:     268 ( 268 )

 Number of N-1 electron functions:              22
 Number of N-2 electron functions:             231
 Number of singly external CSFs:              5940
 Number of doubly external CSFs:          12778965
 Total number of CSFs:                    12784905

 Molecular orbitals read from record     2100.2  Type=RHF/CANONICAL (state 1.1)

 Integral transformation finished. Total CPU:  57.17 sec, npass=  1  Memory used:  12.20 MW
 
 Geminal basis:    OPTFULL  GEM_TYPE=SLATER  BETA=1.0  NGEM=6

 Optimizing Gaussian exponents for each gem_beta

 Geminal optimization for beta= 1.0000
 Weight function:   m=0, omega= 1.4646

 Augmented Hessian optimization of geminal fit. Trust ratio= 0.40000
 Convergence reached after   2 iterations. Final gradient= 8.19D-16, Step= 4.27D-06, Delta= 1.28D-09
 
 Alpha:                 0.19532     0.81920     2.85917     9.50073    35.69989   197.79328
 Coeff:                 0.27070     0.30552     0.18297     0.10986     0.06810     0.04224
 
 
 WFN_F12=FIX,EG    DECOUPLE_EXPL=F   HYBRID=0    NOX=F   SEMIINT_F12=T   CORE_SINGLES=F
 
 AO(A)-basis ORBITAL           loaded. Number of functions:     284
 RI(R)-basis CC-PVTZ-F12/OPTRI loaded. Number of functions:     464
 DF-basis CC-PVTZ/JKFIT        loaded. Number of functions:     436

 Screening thresholds:   THRAO=  1.00D-10  THRMO=  1.00D-10  THRPROD=  1.00D-10
                         THRSW=  1.00D-07  THROV=  1.00D-12  THRAOF12=   1.00D-08

 CPU time for one-electron matrices              30.44 sec
 
 Construction of ABS:
 Pseudo-inverse stability          6.92E-12
 Smallest eigenvalue of S          1.07E-04  (threshold= 1.00E-08)
 Ratio eigmin/eigmax               1.28E-05  (threshold= 1.00E-09)
 Smallest eigenvalue of S kept     1.07E-04  (threshold= 1.07E-04, 0 functions deleted, 464 kept)
 
 Construction of CABS:
 Pseudo-inverse stability          3.22E-10
 Smallest eigenvalue of S          3.73E-07  (threshold= 1.00E-08)
 Ratio eigmin/eigmax               3.73E-07  (threshold= 1.00E-09)
 Smallest eigenvalue of S kept     3.73E-07  (threshold= 3.73E-07, 0 functions deleted, 464 kept)
 
 CPU time for basis constructions                 0.39 sec
 Fock operators(MO) rebuilt from dump record.
 CPU time for fock operators                      0.33 sec
 
                                      TOTAL          ALPHA          BETA    
  Singles Contributions MO        -0.006280125   -0.003172320   -0.003107805
  Singles Contributions CABS      -0.001597663   -0.000890866   -0.000706797
  Pure DF-RHF relaxation          -0.001587276
 
 CPU time for singles                             1.53 sec
 
 AO(A)-basis ORBITAL           loaded. Number of functions:     284
 RI(R)-basis CC-PVTZ-F12/OPTRI loaded. Number of functions:     464
 DF-basis AUG-CC-PVTZ/MP2FIT   loaded. Number of functions:     608

 Screening thresholds:   THRAO=  1.00D-10  THRMO=  1.00D-10  THRPROD=  1.00D-10
                         THRSW=  1.00D-07  THROV=  1.00D-12  THRAOF12=   1.00D-08

 CPU time for transformed integrals             105.90 sec
 CPU time for F12 matrices                        6.27 sec

 Diagonal F12 ansatz with fixed amplitudes:   TS= 0.5000  TT= 0.2500  TN= 0.3750
 
 ITER.     SQ.NORM      CORR.ENERGY   TOTAL ENERGY  ENERGY CHANGE      VAR         CPU   MICRO    DIIS
   1      1.20051640    -0.75587707  -191.53055118    -7.5746E-01   1.96E-01      0.54  1  1  1   0  0
   2      1.20023739    -0.75510427  -191.52977838     7.7280E-04   1.31E-04      2.36  0  0  0   1  1
   3      1.20051865    -0.75538779  -191.53006189    -2.8352E-04   9.79E-07      4.27  0  0  0   2  2
   4      1.20052594    -0.75538945  -191.53006355    -1.6596E-06   5.54E-09      6.29  0  0  0   3  3
   5      1.20052676    -0.75538946  -191.53006356    -9.3128E-09   3.21E-11      8.40  0  0  0   4  4
   6      1.20052678    -0.75538946  -191.53006356    -5.2135E-11   1.78E-13     10.64  0  0  0   5  5
 
 - - Continuing with F12/conv. amplitude coupling turned on.
 
   7      1.20047873    -0.75549632  -191.53017043    -1.0686E-04   5.75E-05     12.72  1  1  1   1  1
   8      1.20047794    -0.75549640  -191.53017051    -8.4000E-08   1.66E-09     14.92  1  1  1   2  2
   9      1.20047796    -0.75549640  -191.53017051    -2.1263E-10   2.30E-12     17.19  1  1  1   3  3
  10      1.20047796    -0.75549640  -191.53017050     6.1501E-09   8.53E-15     19.53  1  1  1   4  4
 
 CPU time for iterative RMP2-F12                 19.53 sec
 
 
 DF-RMP2-F12 doubles corrections:
 - - - - - - - - - - - - - - - - 
  Approx.                             TOTAL           A-B            A-A            B-B    
  RMP2-F12/3C(FIX)                -0.059094401   -0.055066043   -0.002412429   -0.001615929
  RMP2-F12/3*C(FIX)               -0.058987460   -0.055085626   -0.002340401   -0.001561433
  RMP2-F12/3*C(DX)                -0.059154173   -0.055234729   -0.002349540   -0.001569904
  RMP2-F12/3*C(FIX,DX)            -0.061865750   -0.057763122   -0.002438438   -0.001664190
 
 DF-RMP2-F12 doubles energies:
 - - - - - - - - - - - - - - -
  Approx.                             TOTAL           A-B            A-A            B-B    
  RMP2                            -0.690121873   -0.524027284   -0.098029449   -0.068065139
  RMP2-F12/3C(FIX)                -0.749216273   -0.579093327   -0.100441878   -0.069681068
  RMP2-F12/3*C(FIX)               -0.749109332   -0.579112910   -0.100369850   -0.069626572
  RMP2-F12/3*C(DX)                -0.749276045   -0.579262013   -0.100378989   -0.069635043
  RMP2-F12/3*C(FIX,DX)            -0.751987622   -0.581790405   -0.100467887   -0.069729329
 
 
  Reference energy                   -190.773086830269
  CABS relaxation correction to RHF    -0.001587276016
  New reference energy               -190.774674106285
 
  RMP2-F12 singles (MO) energy         -0.006280124812
  RMP2-F12 pair energy                 -0.749216273255
  RMP2-F12 correlation energy          -0.755496398067
 
 !RMP2-F12/3C(FIX) energy            -191.530170504352


 **********************************************************************************************************************************
 DATASETS  * FILE   NREC   LENGTH (MB)   RECORD NAMES
              1      19     3066.37       500      610      700      900      950      970     1000      129      960     1100   
                                          VAR    BASINP    GEOM    SYMINP    ZMAT    AOBASIS   BASIS     P2S    ABASIS      S 
                                         1400     1410     1200     1210     1080     1600     1650     1300     1700   
                                           T        V       H0       H01     AOSYM     SMH    MOLCAS    ERIS     OPER   

              2       5        6.15       700     1000      520     2100     7360   
                                         GEOM     BASIS   MCVARS     RHF    F12ABS    

 PROGRAMS   *        TOTAL  RMP2-F12       RHF       INT
 CPU TIMES  *      1067.41    253.69    571.57    241.38
 REAL TIME  *      1223.94 SEC
 DISK USED  *        12.80 GB      
 **********************************************************************************************************************************
 SETTING MOLPRO_ENERGY  =      -191.53017050  AU                              


 Computing numerical gradient using default procedure for command RMP2-F12

 *** Long output written to logfile /blues/gpfs/home/ajasper/nst/nst_release_2016_06_28/runs/mebel5/qc.log_003 ***


 Running default procedure: RHF-SCF000  RMP2-F12
 

 Generated  18 symmetrical displacements
 Waited for other processes for  10.50 seconds
